 Entering Gaussian System, Link 0=/mnt/gpfs3_amd/share/apps/amd/gaussian/g16-A.03/g16/g16
 Input=/scratch/rdu230/d3tales/high_throughput/runfiles//06IVBN/gaussian/gas_phase/energy/energy_groundState.com
 Output=/scratch/rdu230/d3tales/high_throughput/runfiles//06IVBN/gaussian/gas_phase/energy/energy_groundState.log
 Initial command:
 /mnt/gpfs3_amd/share/apps/amd/gaussian/g16-A.03/g16/l1.exe "/scratch/rdu230/d3tales/high_throughput/runfiles/06IVBN/gaussian/gas_phase/energy/Gau-3658250.inp" -scrdir="/scratch/rdu230/d3tales/high_throughput/runfiles/06IVBN/gaussian/gas_phase/energy/"
 Entering Link 1 = /mnt/gpfs3_amd/share/apps/amd/gaussian/g16-A.03/g16/l1.exe PID=   3658251.
  
 Copyright (c) 1988,1990,1992,1993,1995,1998,2003,2009,2016,
            Gaussian, Inc.  All Rights Reserved.
  
 This is part of the Gaussian(R) 16 program.  It is based on
 the Gaussian(R) 09 system (copyright 2009, Gaussian, Inc.),
 the Gaussian(R) 03 system (copyright 2003, Gaussian, Inc.),
 the Gaussian(R) 98 system (copyright 1998, Gaussian, Inc.),
 the Gaussian(R) 94 system (copyright 1995, Gaussian, Inc.),
 the Gaussian 92(TM) system (copyright 1992, Gaussian, Inc.),
 the Gaussian 90(TM) system (copyright 1990, Gaussian, Inc.),
 the Gaussian 88(TM) system (copyright 1988, Gaussian, Inc.),
 the Gaussian 86(TM) system (copyright 1986, Carnegie Mellon
 University), and the Gaussian 82(TM) system (copyright 1983,
 Carnegie Mellon University). Gaussian is a federally registered
 trademark of Gaussian, Inc.
  
 This software contains proprietary and confidential information,
 including trade secrets, belonging to Gaussian, Inc.
  
 This software is provided under written license and may be
 used, copied, transmitted, or stored only in accord with that
 written license.
  
 The following legend is applicable only to US Government
 contracts under FAR:
  
                    RESTRICTED RIGHTS LEGEND
  
 Use, reproduction and disclosure by the US Government is
 subject to restrictions as set forth in subparagraphs (a)
 and (c) of the Commercial Computer Software - Restricted
 Rights clause in FAR 52.227-19.
  
 Gaussian, Inc.
 340 Quinnipiac St., Bldg. 40, Wallingford CT 06492
  
  
 ---------------------------------------------------------------
 Warning -- This program may not be used in any manner that
 competes with the business of Gaussian, Inc. or will provide
 assistance to any competitor of Gaussian, Inc.  The licensee
 of this program is prohibited from giving any competitor of
 Gaussian, Inc. access to this program.  By using this program,
 the user acknowledges that Gaussian, Inc. is engaged in the
 business of creating and licensing software in the field of
 computational chemistry and represents and warrants to the
 licensee that it is not a competitor of Gaussian, Inc. and that
 it will not use this program in any manner prohibited above.
 ---------------------------------------------------------------
  

 Cite this work as:
 Gaussian 16, Revision A.03,
 M. J. Frisch, G. W. Trucks, H. B. Schlegel, G. E. Scuseria, 
 M. A. Robb, J. R. Cheeseman, G. Scalmani, V. Barone, 
 G. A. Petersson, H. Nakatsuji, X. Li, M. Caricato, A. V. Marenich, 
 J. Bloino, B. G. Janesko, R. Gomperts, B. Mennucci, H. P. Hratchian, 
 J. V. Ortiz, A. F. Izmaylov, J. L. Sonnenberg, D. Williams-Young, 
 F. Ding, F. Lipparini, F. Egidi, J. Goings, B. Peng, A. Petrone, 
 T. Henderson, D. Ranasinghe, V. G. Zakrzewski, J. Gao, N. Rega, 
 G. Zheng, W. Liang, M. Hada, M. Ehara, K. Toyota, R. Fukuda, 
 J. Hasegawa, M. Ishida, T. Nakajima, Y. Honda, O. Kitao, H. Nakai, 
 T. Vreven, K. Throssell, J. A. Montgomery, Jr., J. E. Peralta, 
 F. Ogliaro, M. J. Bearpark, J. J. Heyd, E. N. Brothers, K. N. Kudin, 
 V. N. Staroverov, T. A. Keith, R. Kobayashi, J. Normand, 
 K. Raghavachari, A. P. Rendell, J. C. Burant, S. S. Iyengar, 
 J. Tomasi, M. Cossi, J. M. Millam, M. Klene, C. Adamo, R. Cammi, 
 J. W. Ochterski, R. L. Martin, K. Morokuma, O. Farkas, 
 J. B. Foresman, and D. J. Fox, Gaussian, Inc., Wallingford CT, 2016.
 
 ******************************************
 Gaussian 16:  AM64L-G16RevA.03 25-Dec-2016
                11-May-2022 
 ******************************************
 %chk=/scratch/rdu230/d3tales/high_throughput/runfiles//06IVBN/gaussian/gas_phase
 /energy/energy_groundState.chk
 %mem=48GB
 %nprocshared=16
 Will use up to   16 processors via shared memory.
 -----------------------------------------------------------
 #P LC-wHPBE/Def2SVP iop(3/107=0225700000, 3/108=0225700000)
 -----------------------------------------------------------
 1/38=1,172=1/1;
 2/12=2,17=6,18=5,40=1/2;
 3/5=43,7=101,11=2,25=1,30=1,74=-71,107=225700000,108=225700000/1,2,3;
 4//1;
 5/5=2,38=5/2;
 6/7=2,8=2,9=2,10=2,28=1/1;
 99/5=1,9=1/99;
 Leave Link    1 at Wed May 11 07:11:34 2022, MaxMem=  6442450944 cpu:               4.0 elap:               0.3
 (Enter /mnt/gpfs3_amd/share/apps/amd/gaussian/g16-A.03/g16/l101.exe)
 ----------
 H13 C15 N2
 ----------
 Symbolic Z-matrix:
 Charge =  1 Multiplicity = 1
 N                    -2.574     3.0568    0.18456 
 C                    -1.32696   2.71951   0.03643 
 C                     0.00727   3.07041  -0.17253 
 C                    -0.3107    1.75219  -0.05193 
 N                     0.04996   0.44256  -0.03058 
 C                    -0.9723   -0.55729   0.02403 
 C                    -2.09552  -0.47106  -0.82324 
 C                    -3.06809  -1.46327  -0.74816 
 C                    -2.92979  -2.52627   0.16668 
 C                    -1.81251  -2.60221   1.0076 
 C                    -0.82527  -1.61983   0.94537 
 C                     1.40235   0.06264  -0.05661 
 C                     1.7515   -1.15451  -0.72094 
 C                     3.07734  -1.55675  -0.7533 
 C                     4.06412  -0.76459  -0.13929 
 C                     3.71836   0.44392   0.51667 
 C                     2.40182   0.86536   0.55668 
 H                    -3.3005    2.35623   0.35529 
 H                    -2.8582    4.04178   0.15799 
 H                     0.75282   3.86222  -0.31561 
 H                    -2.17415   0.32544  -1.57692 
 H                    -3.93491  -1.43061  -1.42171 
 H                    -3.70708  -3.30083   0.21958 
 H                    -1.7181   -3.42428   1.72922 
 H                     0.03102  -1.64231   1.63355 
 H                     0.97876  -1.72743  -1.25054 
 H                     3.35884  -2.47633  -1.28304 
 H                     5.11685  -1.07915  -0.17347 
 H                     4.49887   1.03626   1.01271 
 H                     2.1344    1.77409   1.11042 
 
 ITRead=  0  0  0  0  0  0  0  0  0  0  0  0  0  0  0  0  0  0  0  0
 ITRead=  0  0  0  0  0  0  0  0  0  0
 MicOpt= -1 -1 -1 -1 -1 -1 -1 -1 -1 -1 -1 -1 -1 -1 -1 -1 -1 -1 -1 -1
 MicOpt= -1 -1 -1 -1 -1 -1 -1 -1 -1 -1
 NAtoms=     30 NQM=       30 NQMF=       0 NMMI=      0 NMMIF=      0
                NMic=       0 NMicF=      0.
                    Isotopes and Nuclear Properties:
 (Nuclear quadrupole moments (NQMom) in fm**2, nuclear magnetic moments (NMagM)
  in nuclear magnetons)

  Atom         1           2           3           4           5           6           7           8           9          10
 IAtWgt=          14          12          12          12          14          12          12          12          12          12
 AtmWgt=  14.0030740  12.0000000  12.0000000  12.0000000  14.0030740  12.0000000  12.0000000  12.0000000  12.0000000  12.0000000
 NucSpn=           2           0           0           0           2           0           0           0           0           0
 AtZEff=  -0.0000000  -0.0000000  -0.0000000  -0.0000000  -0.0000000  -0.0000000  -0.0000000  -0.0000000  -0.0000000  -0.0000000
 NQMom=    2.0440000   0.0000000   0.0000000   0.0000000   2.0440000   0.0000000   0.0000000   0.0000000   0.0000000   0.0000000
 NMagM=    0.4037610   0.0000000   0.0000000   0.0000000   0.4037610   0.0000000   0.0000000   0.0000000   0.0000000   0.0000000
 AtZNuc=   7.0000000   6.0000000   6.0000000   6.0000000   7.0000000   6.0000000   6.0000000   6.0000000   6.0000000   6.0000000

  Atom        11          12          13          14          15          16          17          18          19          20
 IAtWgt=          12          12          12          12          12          12          12           1           1           1
 AtmWgt=  12.0000000  12.0000000  12.0000000  12.0000000  12.0000000  12.0000000  12.0000000   1.0078250   1.0078250   1.0078250
 NucSpn=           0           0           0           0           0           0           0           1           1           1
 AtZEff=  -0.0000000  -0.0000000  -0.0000000  -0.0000000  -0.0000000  -0.0000000  -0.0000000  -0.0000000  -0.0000000  -0.0000000
 NQMom=    0.0000000   0.0000000   0.0000000   0.0000000   0.0000000   0.0000000   0.0000000   0.0000000   0.0000000   0.0000000
 NMagM=    0.0000000   0.0000000   0.0000000   0.0000000   0.0000000   0.0000000   0.0000000   2.7928460   2.7928460   2.7928460
 AtZNuc=   6.0000000   6.0000000   6.0000000   6.0000000   6.0000000   6.0000000   6.0000000   1.0000000   1.0000000   1.0000000

  Atom        21          22          23          24          25          26          27          28          29          30
 IAtWgt=           1           1           1           1           1           1           1           1           1           1
 AtmWgt=   1.0078250   1.0078250   1.0078250   1.0078250   1.0078250   1.0078250   1.0078250   1.0078250   1.0078250   1.0078250
 NucSpn=           1           1           1           1           1           1           1           1           1           1
 AtZEff=  -0.0000000  -0.0000000  -0.0000000  -0.0000000  -0.0000000  -0.0000000  -0.0000000  -0.0000000  -0.0000000  -0.0000000
 NQMom=    0.0000000   0.0000000   0.0000000   0.0000000   0.0000000   0.0000000   0.0000000   0.0000000   0.0000000   0.0000000
 NMagM=    2.7928460   2.7928460   2.7928460   2.7928460   2.7928460   2.7928460   2.7928460   2.7928460   2.7928460   2.7928460
 AtZNuc=   1.0000000   1.0000000   1.0000000   1.0000000   1.0000000   1.0000000   1.0000000   1.0000000   1.0000000   1.0000000
 Leave Link  101 at Wed May 11 07:11:34 2022, MaxMem=  6442450944 cpu:               0.8 elap:               0.1
 (Enter /mnt/gpfs3_amd/share/apps/amd/gaussian/g16-A.03/g16/l202.exe)
                          Input orientation:                          
 ---------------------------------------------------------------------
 Center     Atomic      Atomic             Coordinates (Angstroms)
 Number     Number       Type             X           Y           Z
 ---------------------------------------------------------------------
      1          7           0       -2.574002    3.056798    0.184555
      2          6           0       -1.326958    2.719512    0.036430
      3          6           0        0.007265    3.070413   -0.172528
      4          6           0       -0.310700    1.752185   -0.051933
      5          7           0        0.049956    0.442556   -0.030581
      6          6           0       -0.972295   -0.557288    0.024026
      7          6           0       -2.095518   -0.471064   -0.823239
      8          6           0       -3.068088   -1.463270   -0.748155
      9          6           0       -2.929794   -2.526270    0.166683
     10          6           0       -1.812505   -2.602211    1.007596
     11          6           0       -0.825265   -1.619832    0.945373
     12          6           0        1.402348    0.062636   -0.056606
     13          6           0        1.751495   -1.154509   -0.720943
     14          6           0        3.077336   -1.556752   -0.753303
     15          6           0        4.064120   -0.764585   -0.139293
     16          6           0        3.718359    0.443921    0.516670
     17          6           0        2.401815    0.865356    0.556678
     18          1           0       -3.300503    2.356233    0.355291
     19          1           0       -2.858199    4.041775    0.157988
     20          1           0        0.752823    3.862221   -0.315605
     21          1           0       -2.174150    0.325442   -1.576924
     22          1           0       -3.934907   -1.430605   -1.421712
     23          1           0       -3.707077   -3.300833    0.219576
     24          1           0       -1.718101   -3.424280    1.729215
     25          1           0        0.031017   -1.642314    1.633546
     26          1           0        0.978758   -1.727429   -1.250542
     27          1           0        3.358839   -2.476329   -1.283045
     28          1           0        5.116849   -1.079150   -0.173469
     29          1           0        4.498875    1.036258    1.012711
     30          1           0        2.134402    1.774092    1.110425
 ---------------------------------------------------------------------
                    Distance matrix (angstroms):
                    1          2          3          4          5
     1  N    0.000000
     2  C    1.300316   0.000000
     3  C    2.605884   1.395330   0.000000
     4  C    2.623066   1.405813   1.361385   0.000000
     5  N    3.710216   2.661750   2.632034   1.358550   0.000000
     6  C    3.956369   3.295961   3.762763   2.403569   1.430967
     7  C    3.700055   3.392564   4.169794   2.953527   2.462939
     8  C    4.641668   4.598127   5.508487   4.292676   3.724149
     9  C    5.594422   5.486737   6.329632   5.021217   4.210909
    10  C    5.769026   5.431358   6.073131   4.726392   3.717147
    11  C    5.050524   4.461813   4.892975   3.553856   2.443756
    12  C    4.983425   3.810086   3.317592   2.406061   1.404984
    13  C    6.104503   5.005849   4.603592   3.626168   2.433609
    14  C    7.355409   6.189339   5.583305   4.787460   3.699269
    15  C    7.666323   6.421334   5.582686   5.047852   4.193152
    16  C    6.821381   5.555553   4.598442   4.274129   3.708998
    17  C    5.449738   4.196701   3.335849   2.917981   2.460665
    18  H    1.023595   2.031877   3.424905   3.077276   3.877710
    19  H    1.025502   2.026784   3.043628   3.431624   4.631123
    20  H    3.459282   2.399000   1.096945   2.377574   3.502766
    21  H    3.274599   3.008690   3.777005   2.798864   2.711372
    22  H    4.956707   5.113809   6.112311   5.014112   4.617695
    23  H    6.457907   6.476346   7.385314   6.094431   5.309504
    24  H    6.717359   6.384723   6.983878   5.652350   4.601666
    25  H    5.564832   4.839463   5.047005   3.805290   2.667651
    26  H    6.129473   5.171838   5.012504   3.899626   2.657031
    27  H    8.244267   7.120005   6.575153   5.732494   4.586640
    28  H    8.739762   7.483084   6.582304   6.122868   5.292392
    29  H    7.402298   6.142214   5.071207   4.977754   4.608017
    30  H    4.967055   3.745437   2.801987   2.707412   2.723931
                    6          7          8          9         10
     6  C    0.000000
     7  C    1.409582   0.000000
     8  C    2.410273   1.391403   0.000000
     9  C    2.780116   2.428957   1.409263   0.000000
    10  C    2.419726   2.823799   2.440561   1.400442   0.000000
    11  C    1.414036   2.461950   2.814748   2.420130   1.394124
    12  C    2.455552   3.620446   4.774037   5.051707   4.309201
    13  C    2.886292   3.908589   4.829540   4.958233   4.217320
    14  C    4.242957   5.286022   6.146137   6.154019   5.301348
    15  C    5.043324   6.204440   7.192167   7.218863   6.263142
    16  C    4.821551   6.036035   7.161915   7.289888   6.333276
    17  C    3.700304   4.890419   6.086454   6.330978   5.476116
    18  H    3.744181   3.291585   3.982488   4.900187   5.217835
    19  H    4.972521   4.680834   5.583070   6.568441   6.779223
    20  H    4.756411   5.210384   6.568662   7.389661   7.079594
    21  H    2.187855   1.099384   2.164596   3.426868   3.921949
    22  H    3.410266   2.159222   1.098235   2.175714   3.432024
    23  H    3.878700   3.419383   2.172889   1.098597   2.167591
    24  H    3.418119   3.921600   3.435897   2.171665   1.097927
    25  H    2.185056   3.453950   3.912673   3.420448   2.170666
    26  H    2.607750   3.348464   4.086458   4.233610   3.695346
    27  H    4.914252   5.829453   6.528230   6.453767   5.657356
    28  H    6.114656   7.267063   8.214074   8.182807   7.192397
    29  H    5.783648   7.009190   8.161325   8.282058   7.285053
    30  H    4.033257   5.164495   6.403182   6.710428   5.894122
                   11         12         13         14         15
    11  C    0.000000
    12  C    2.965960   0.000000
    13  C    3.103680   1.429926   0.000000
    14  C    4.256733   2.431746   1.385894   0.000000
    15  C    5.080751   2.788577   2.416318   1.406513   0.000000
    16  C    5.008731   2.416181   2.820500   2.454880   1.417859
    17  C    4.091612   1.421060   2.476911   2.835311   2.429885
    18  H    4.720603   5.248529   6.245500   7.564209   8.013850
    19  H    6.066843   5.833683   7.001655   8.210026   8.432554
    20  H    5.842374   3.863394   5.131201   5.912716   5.692373
    21  H    3.459128   3.895096   4.281781   5.639070   6.493917
    22  H    3.912643   5.707852   5.736068   7.045157   8.128506
    23  H    3.414291   6.123351   5.940311   7.072240   8.182472
    24  H    2.160462   5.008487   4.815935   5.713735   6.633203
    25  H    1.098775   2.764782   2.956623   3.870973   4.492136
    26  H    2.843962   2.192999   1.098105   2.163425   3.417807
    27  H    4.817277   3.431961   2.155626   1.097949   2.176157
    28  H    6.070656   3.887782   3.410427   2.173459   1.099253
    29  H    5.950279   3.417581   3.918305   3.444311   2.181550
    30  H    4.506173   2.197031   3.475231   3.931555   3.424980
                   16         17         18         19         20
    16  C    0.000000
    17  C    1.382930   0.000000
    18  H    7.276497   5.897432   0.000000
    19  H    7.504953   6.157624   1.753743   0.000000
    20  H    4.601289   3.530050   4.375792   3.646369   0.000000
    21  H    6.254505   5.077718   3.020966   4.158001   4.760977
    22  H    8.114410   7.024209   4.230881   5.796697   7.156276
    23  H    8.321571   7.401981   5.673281   7.391771   8.454967
    24  H    6.781470   6.062139   6.148658   7.714308   7.961146
    25  H    4.381356   3.615071   5.359229   6.544747   5.883885
    26  H    3.917041   3.466074   6.129198   7.070354   5.671802
    27  H    3.449071   3.932853   8.389555   9.122161   6.921306
    28  H    2.179865   3.418425   9.106770   9.483413   6.594094
    29  H    1.098237   2.152867   7.937558   7.993136   4.876822
    30  H    2.151934   1.097245   5.517908   5.565572   2.881424
                   21         22         23         24         25
    21  H    0.000000
    22  H    2.491597   0.000000
    23  H    4.327487   2.498697   0.000000
    24  H    5.019856   4.337892   2.500055   0.000000
    25  H    4.363707   5.010786   4.327048   2.498794   0.000000
    26  H    3.776458   4.925597   5.156927   4.362488   3.037009
    27  H    6.208885   7.369634   7.270822   5.978933   4.502942
    28  H    7.556536   9.144174   9.107800   7.472375   5.426614
    29  H    7.193103   9.118142   9.315421   7.685087   5.246136
    30  H    5.280535   7.315621   7.789182   6.499827   4.045950
                   26         27         28         29         30
    26  H    0.000000
    27  H    2.495334   0.000000
    28  H    4.324829   2.504769   0.000000
    29  H    5.015127   4.348384   2.502772   0.000000
    30  H    4.378393   5.029316   4.322541   2.478846   0.000000
 Stoichiometry    C15H13N2(1+)
 Framework group  C1[X(C15H13N2)]
 Deg. of freedom    84
 Full point group                 C1      NOp   1
 Largest Abelian subgroup         C1      NOp   1
 Largest concise Abelian subgroup C1      NOp   1
                         Standard orientation:                         
 ---------------------------------------------------------------------
 Center     Atomic      Atomic             Coordinates (Angstroms)
 Number     Number       Type             X           Y           Z
 ---------------------------------------------------------------------
      1          7           0       -2.574002    3.056798    0.184555
      2          6           0       -1.326958    2.719512    0.036430
      3          6           0        0.007265    3.070413   -0.172528
      4          6           0       -0.310700    1.752185   -0.051933
      5          7           0        0.049956    0.442556   -0.030581
      6          6           0       -0.972295   -0.557288    0.024026
      7          6           0       -2.095518   -0.471064   -0.823239
      8          6           0       -3.068088   -1.463270   -0.748155
      9          6           0       -2.929794   -2.526270    0.166683
     10          6           0       -1.812505   -2.602211    1.007596
     11          6           0       -0.825265   -1.619832    0.945373
     12          6           0        1.402348    0.062636   -0.056606
     13          6           0        1.751495   -1.154509   -0.720943
     14          6           0        3.077336   -1.556752   -0.753303
     15          6           0        4.064120   -0.764585   -0.139293
     16          6           0        3.718359    0.443921    0.516670
     17          6           0        2.401815    0.865356    0.556678
     18          1           0       -3.300503    2.356233    0.355291
     19          1           0       -2.858199    4.041775    0.157988
     20          1           0        0.752823    3.862221   -0.315605
     21          1           0       -2.174150    0.325442   -1.576924
     22          1           0       -3.934907   -1.430605   -1.421712
     23          1           0       -3.707077   -3.300833    0.219576
     24          1           0       -1.718101   -3.424280    1.729215
     25          1           0        0.031017   -1.642314    1.633546
     26          1           0        0.978758   -1.727429   -1.250542
     27          1           0        3.358839   -2.476329   -1.283045
     28          1           0        5.116849   -1.079151   -0.173469
     29          1           0        4.498875    1.036257    1.012711
     30          1           0        2.134402    1.774092    1.110425
 ---------------------------------------------------------------------
 Rotational constants (GHZ):           0.6224659           0.4055685           0.2649592
 Leave Link  202 at Wed May 11 07:11:34 2022, MaxMem=  6442450944 cpu:               0.1 elap:               0.0
 (Enter /mnt/gpfs3_amd/share/apps/amd/gaussian/g16-A.03/g16/l301.exe)
 Standard basis: def2SVP (5D, 7F)
 Ernie: Thresh=  0.10000D-02 Tol=  0.10000D-05 Strict=F.
 There are   320 symmetry adapted cartesian basis functions of A   symmetry.
 There are   303 symmetry adapted basis functions of A   symmetry.
   303 basis functions,   516 primitive gaussians,   320 cartesian basis functions
    58 alpha electrons       58 beta electrons
       nuclear repulsion energy      1083.6294984006 Hartrees.
 IExCor=33909 DFT=T Ex+Corr=LC-wHPBE ExCW=0 ScaHFX=  1.000000
 ScaDFX=  1.000000  1.000000  1.000000  1.000000 ScalE2=  1.000000  1.000000
 IRadAn=      5 IRanWt=     -1 IRanGd=            0 ICorTp=0 IEmpDi=  4
 HFx  wShort=  0.000000 wLong=  0.225700 cFull=  0.000000 cShort=  0.000000 cLong=  1.000000
 DFx  wShort=  0.000000 wLong=  0.225700 cFull=  0.000000 cShort=  1.000000 cLong=  0.000000
 NAtoms=   30 NActive=   30 NUniq=   30 SFac= 1.00D+00 NAtFMM=   60 NAOKFM=F Big=F
 Integral buffers will be    131072 words long.
 Raffenetti 2 integral format.
 Two-electron integral symmetry is turned on.
 Leave Link  301 at Wed May 11 07:11:34 2022, MaxMem=  6442450944 cpu:               0.3 elap:               0.0
 (Enter /mnt/gpfs3_amd/share/apps/amd/gaussian/g16-A.03/g16/l302.exe)
 NPDir=0 NMtPBC=     1 NCelOv=     1 NCel=       1 NClECP=     1 NCelD=      1
         NCelK=      1 NCelE2=     1 NClLst=     1 CellRange=     0.0.
 One-electron integrals computed using PRISM.
 One-electron integral symmetry used in STVInt
   1 Symmetry operations used in ECPInt.
 ECPInt:  NShTT=   10011 NPrTT=   36575 LenC2=    9406 LenP2D=   24568.
 LDataN:  DoStor=T MaxTD1= 4 Len=   56
 NBasis=   303 RedAO= T EigKep=  2.88D-04  NBF=   303
 NBsUse=   303 1.00D-06 EigRej= -1.00D+00 NBFU=   303
 Precomputing XC quadrature grid using
 IXCGrd= 4 IRadAn=           5 IRanWt=          -1 IRanGd=           0 AccXCQ= 0.00D+00.
 Generated NRdTot=       0 NPtTot=           0 NUsed=           0 NTot=          32
 NSgBfM=   319   319   319   319   319 MxSgAt=    30 MxSgA2=    30.
 Leave Link  302 at Wed May 11 07:11:34 2022, MaxMem=  6442450944 cpu:               8.1 elap:               0.5
 (Enter /mnt/gpfs3_amd/share/apps/amd/gaussian/g16-A.03/g16/l303.exe)
 DipDrv:  MaxL=1.
 Leave Link  303 at Wed May 11 07:11:34 2022, MaxMem=  6442450944 cpu:               0.5 elap:               0.0
 (Enter /mnt/gpfs3_amd/share/apps/amd/gaussian/g16-A.03/g16/l401.exe)
 ExpMin= 1.22D-01 ExpMax= 1.71D+03 ExpMxC= 2.58D+02 IAcc=3 IRadAn=         5 AccDes= 0.00D+00
 Harris functional with IExCor=33909 and IRadAn=       5 diagonalized for initial guess.
 HarFok:  IExCor=33909 AccDes= 0.00D+00 IRadAn=         5 IDoV= 1 UseB2=F ITyADJ=14
 ICtDFT=  3500011 ScaDFX=  1.000000  1.000000  1.000000  1.000000
 FoFCou: FMM=F IPFlag=           0 FMFlag=      100000 FMFlg1=           0
         NFxFlg=           0 DoJE=T BraDBF=F KetDBF=T FulRan=T
         wScrn=  0.000000 ICntrl=       500 IOpCl=  0 I1Cent=   200000004 NGrid=           0
         NMat0=    1 NMatS0=      1 NMatT0=    0 NMatD0=    1 NMtDS0=    0 NMtDT0=    0
 Petite list used in FoFCou.
 Harris En= -673.693922863968    
 JPrj=0 DoOrth=F DoCkMO=F.
 Leave Link  401 at Wed May 11 07:11:37 2022, MaxMem=  6442450944 cpu:              43.1 elap:               2.8
 (Enter /mnt/gpfs3_amd/share/apps/amd/gaussian/g16-A.03/g16/l502.exe)
 Integral symmetry usage will be decided dynamically.
 Closed shell SCF:
 Using DIIS extrapolation, IDIIS=  1040.
 NGot=  6442450944 LenX=  6442237618 LenY=  6442134777
 Requested convergence on RMS density matrix=1.00D-08 within 128 cycles.
 Requested convergence on MAX density matrix=1.00D-06.
 Requested convergence on             energy=1.00D-06.
 No special actions if energy rises.
 Fock matrices will be formed incrementally for  20 cycles.
 Integral accuracy reduced to 1.0D-05 until final iterations.

 Cycle   1  Pass 0  IDiag  1:
 FoFJK:  IHMeth= 1 ICntrl=       0 DoSepK=T KAlg= 0 I1Cent=           0 FoldK=F
 IRaf=         1 NMat=       1 IRICut=       1 DoRegI=T DoRafI=F ISym2E= 0 IDoP0=0 IntGTp=1.
 FoFCou: FMM=F IPFlag=           0 FMFlag=      100000 FMFlg1=           0
         NFxFlg=           0 DoJE=T BraDBF=F KetDBF=F FulRan=T
         wScrn=  0.000000 ICntrl=       500 IOpCl=  0 I1Cent=           0 NGrid=           0
         NMat0=    1 NMatS0=      1 NMatT0=    0 NMatD0=    1 NMtDS0=    0 NMtDT0=    0
 Symmetry not used in FoFCou.
 E= -687.318035921389    
 DIIS: error= 1.81D-02 at cycle   1 NSaved=   1.
 NSaved= 1 IEnMin= 1 EnMin= -687.318035921389     IErMin= 1 ErrMin= 1.81D-02
 ErrMax= 1.81D-02  0.00D+00 EMaxC= 1.00D-01 BMatC= 1.92D-01 BMatP= 1.92D-01
 IDIUse=3 WtCom= 8.19D-01 WtEn= 1.81D-01
 Coeff-Com:  0.100D+01
 Coeff-En:   0.100D+01
 Coeff:      0.100D+01
 Gap=     0.409 Goal=   None    Shift=    0.000
 GapD=    0.409 DampG=2.000 DampE=0.500 DampFc=1.0000 IDamp=-1.
 RMSDP=4.07D-03 MaxDP=7.47D-02              OVMax= 2.01D-01

 Cycle   2  Pass 0  IDiag  1:
 RMSU=  3.91D-03    CP:  9.43D-01
 E= -687.305531066042     Delta-E=        0.012504855347 Rises=F Damp=F
 DIIS: error= 2.85D-02 at cycle   2 NSaved=   2.
 NSaved= 2 IEnMin= 1 EnMin= -687.318035921389     IErMin= 1 ErrMin= 1.81D-02
 ErrMax= 2.85D-02  0.00D+00 EMaxC= 1.00D-01 BMatC= 2.41D-01 BMatP= 1.92D-01
 IDIUse=2 WtCom= 0.00D+00 WtEn= 1.00D+00
 Coeff-En:   0.515D+00 0.485D+00
 Coeff:      0.515D+00 0.485D+00
 Gap=     0.314 Goal=   None    Shift=    0.000
 RMSDP=2.10D-03 MaxDP=6.60D-02 DE= 1.25D-02 OVMax= 1.25D-01

 Cycle   3  Pass 0  IDiag  1:
 RMSU=  1.18D-03    CP:  9.52D-01  5.58D-01
 E= -687.527758718147     Delta-E=       -0.222227652104 Rises=F Damp=F
 DIIS: error= 7.98D-03 at cycle   3 NSaved=   3.
 NSaved= 3 IEnMin= 3 EnMin= -687.527758718147     IErMin= 3 ErrMin= 7.98D-03
 ErrMax= 7.98D-03  0.00D+00 EMaxC= 1.00D-01 BMatC= 1.27D-02 BMatP= 1.92D-01
 IDIUse=3 WtCom= 9.20D-01 WtEn= 7.98D-02
 Coeff-Com:  0.200D+00 0.239D+00 0.561D+00
 Coeff-En:   0.000D+00 0.000D+00 0.100D+01
 Coeff:      0.184D+00 0.220D+00 0.596D+00
 Gap=     0.298 Goal=   None    Shift=    0.000
 RMSDP=5.29D-04 MaxDP=2.81D-02 DE=-2.22D-01 OVMax= 4.17D-02

 Cycle   4  Pass 0  IDiag  1:
 RMSU=  3.84D-04    CP:  9.53D-01  6.04D-01  7.31D-01
 E= -687.539381833568     Delta-E=       -0.011623115422 Rises=F Damp=F
 DIIS: error= 2.52D-03 at cycle   4 NSaved=   4.
 NSaved= 4 IEnMin= 4 EnMin= -687.539381833568     IErMin= 4 ErrMin= 2.52D-03
 ErrMax= 2.52D-03  0.00D+00 EMaxC= 1.00D-01 BMatC= 1.53D-03 BMatP= 1.27D-02
 IDIUse=3 WtCom= 9.75D-01 WtEn= 2.52D-02
 Coeff-Com:  0.222D-01 0.266D-01 0.272D+00 0.679D+00
 Coeff-En:   0.000D+00 0.000D+00 0.602D-01 0.940D+00
 Coeff:      0.216D-01 0.260D-01 0.267D+00 0.686D+00
 Gap=     0.290 Goal=   None    Shift=    0.000
 RMSDP=1.72D-04 MaxDP=7.79D-03 DE=-1.16D-02 OVMax= 1.05D-02

 Cycle   5  Pass 0  IDiag  1:
 RMSU=  9.64D-05    CP:  9.52D-01  5.96D-01  8.29D-01  8.06D-01
 E= -687.540878500702     Delta-E=       -0.001496667134 Rises=F Damp=F
 DIIS: error= 5.76D-04 at cycle   5 NSaved=   5.
 NSaved= 5 IEnMin= 5 EnMin= -687.540878500702     IErMin= 5 ErrMin= 5.76D-04
 ErrMax= 5.76D-04  0.00D+00 EMaxC= 1.00D-01 BMatC= 7.70D-05 BMatP= 1.53D-03
 IDIUse=3 WtCom= 9.94D-01 WtEn= 5.76D-03
 Coeff-Com: -0.535D-02-0.872D-02 0.702D-01 0.289D+00 0.654D+00
 Coeff-En:   0.000D+00 0.000D+00 0.000D+00 0.000D+00 0.100D+01
 Coeff:     -0.532D-02-0.867D-02 0.698D-01 0.288D+00 0.656D+00
 Gap=     0.293 Goal=   None    Shift=    0.000
 RMSDP=4.71D-05 MaxDP=1.68D-03 DE=-1.50D-03 OVMax= 3.03D-03

 Cycle   6  Pass 0  IDiag  1:
 RMSU=  3.82D-05    CP:  9.52D-01  5.93D-01  8.40D-01  8.60D-01  9.74D-01
 E= -687.540964585151     Delta-E=       -0.000086084449 Rises=F Damp=F
 DIIS: error= 1.86D-04 at cycle   6 NSaved=   6.
 NSaved= 6 IEnMin= 6 EnMin= -687.540964585151     IErMin= 6 ErrMin= 1.86D-04
 ErrMax= 1.86D-04  0.00D+00 EMaxC= 1.00D-01 BMatC= 9.55D-06 BMatP= 7.70D-05
 IDIUse=3 WtCom= 9.98D-01 WtEn= 1.86D-03
 Coeff-Com: -0.525D-02-0.802D-02-0.705D-02 0.281D-01 0.263D+00 0.730D+00
 Coeff-En:   0.000D+00 0.000D+00 0.000D+00 0.000D+00 0.000D+00 0.100D+01
 Coeff:     -0.524D-02-0.800D-02-0.704D-02 0.281D-01 0.262D+00 0.730D+00
 Gap=     0.293 Goal=   None    Shift=    0.000
 RMSDP=1.90D-05 MaxDP=5.31D-04 DE=-8.61D-05 OVMax= 2.19D-03

 Cycle   7  Pass 0  IDiag  1:
 RMSU=  1.40D-05    CP:  9.52D-01  5.92D-01  8.44D-01  8.74D-01  1.08D+00
                    CP:  1.05D+00
 E= -687.540979697199     Delta-E=       -0.000015112048 Rises=F Damp=F
 DIIS: error= 7.80D-05 at cycle   7 NSaved=   7.
 NSaved= 7 IEnMin= 7 EnMin= -687.540979697199     IErMin= 7 ErrMin= 7.80D-05
 ErrMax= 7.80D-05  0.00D+00 EMaxC= 1.00D-01 BMatC= 1.04D-06 BMatP= 9.55D-06
 IDIUse=1 WtCom= 1.00D+00 WtEn= 0.00D+00
 Coeff-Com: -0.544D-03-0.117D-02-0.118D-01-0.336D-01-0.362D-01 0.199D+00
 Coeff-Com:  0.884D+00
 Coeff:     -0.544D-03-0.117D-02-0.118D-01-0.336D-01-0.362D-01 0.199D+00
 Coeff:      0.884D+00
 Gap=     0.293 Goal=   None    Shift=    0.000
 RMSDP=1.05D-05 MaxDP=2.68D-04 DE=-1.51D-05 OVMax= 1.27D-03

 Cycle   8  Pass 0  IDiag  1:
 RMSU=  5.39D-06    CP:  9.52D-01  5.92D-01  8.45D-01  8.81D-01  1.13D+00
                    CP:  1.21D+00  1.23D+00
 E= -687.540981238725     Delta-E=       -0.000001541526 Rises=F Damp=F
 DIIS: error= 2.26D-05 at cycle   8 NSaved=   8.
 NSaved= 8 IEnMin= 8 EnMin= -687.540981238725     IErMin= 8 ErrMin= 2.26D-05
 ErrMax= 2.26D-05  0.00D+00 EMaxC= 1.00D-01 BMatC= 2.24D-07 BMatP= 1.04D-06
 IDIUse=1 WtCom= 1.00D+00 WtEn= 0.00D+00
 Coeff-Com:  0.431D-03 0.504D-03-0.397D-02-0.175D-01-0.603D-01-0.290D-01
 Coeff-Com:  0.366D+00 0.744D+00
 Coeff:      0.431D-03 0.504D-03-0.397D-02-0.175D-01-0.603D-01-0.290D-01
 Coeff:      0.366D+00 0.744D+00
 Gap=     0.293 Goal=   None    Shift=    0.000
 RMSDP=4.21D-06 MaxDP=9.42D-05 DE=-1.54D-06 OVMax= 4.43D-04

 Initial convergence to 1.0D-05 achieved.  Increase integral accuracy.
 Cycle   9  Pass 1  IDiag  1:
 E= -687.540983479237     Delta-E=       -0.000002240512 Rises=F Damp=F
 DIIS: error= 1.17D-04 at cycle   1 NSaved=   1.
 NSaved= 1 IEnMin= 1 EnMin= -687.540983479237     IErMin= 1 ErrMin= 1.17D-04
 ErrMax= 1.17D-04  0.00D+00 EMaxC= 1.00D-01 BMatC= 1.41D-06 BMatP= 1.41D-06
 IDIUse=3 WtCom= 9.99D-01 WtEn= 1.17D-03
 Coeff-Com:  0.100D+01
 Coeff-En:   0.100D+01
 Coeff:      0.100D+01
 Gap=     0.293 Goal=   None    Shift=    0.000
 RMSDP=4.21D-06 MaxDP=9.42D-05 DE=-2.24D-06 OVMax= 1.98D-04

 Cycle  10  Pass 1  IDiag  1:
 RMSU=  7.49D-05    CP:  1.00D+00
 E= -687.540984782818     Delta-E=       -0.000001303580 Rises=F Damp=F
 DIIS: error= 7.80D-06 at cycle   2 NSaved=   2.
 NSaved= 2 IEnMin= 2 EnMin= -687.540984782818     IErMin= 2 ErrMin= 7.80D-06
 ErrMax= 7.80D-06  0.00D+00 EMaxC= 1.00D-01 BMatC= 2.46D-08 BMatP= 1.41D-06
 IDIUse=1 WtCom= 1.00D+00 WtEn= 0.00D+00
 Coeff-Com: -0.164D-01 0.102D+01
 Coeff:     -0.164D-01 0.102D+01
 Gap=     0.293 Goal=   None    Shift=    0.000
 RMSDP=5.30D-06 MaxDP=1.36D-04 DE=-1.30D-06 OVMax= 1.09D-04

 Cycle  11  Pass 1  IDiag  1:
 RMSU=  1.70D-06    CP:  1.00D+00  1.07D+00
 E= -687.540984776599     Delta-E=        0.000000006219 Rises=F Damp=F
 DIIS: error= 1.16D-05 at cycle   3 NSaved=   3.
 NSaved= 3 IEnMin= 2 EnMin= -687.540984782818     IErMin= 2 ErrMin= 7.80D-06
 ErrMax= 1.16D-05  0.00D+00 EMaxC= 1.00D-01 BMatC= 3.87D-08 BMatP= 2.46D-08
 IDIUse=1 WtCom= 1.00D+00 WtEn= 0.00D+00
 Coeff-Com: -0.265D-01 0.580D+00 0.446D+00
 Coeff:     -0.265D-01 0.580D+00 0.446D+00
 Gap=     0.293 Goal=   None    Shift=    0.000
 RMSDP=7.42D-07 MaxDP=4.41D-05 DE= 6.22D-09 OVMax= 4.55D-05

 Cycle  12  Pass 1  IDiag  1:
 RMSU=  6.13D-07    CP:  1.00D+00  1.07D+00  8.13D-01
 E= -687.540984814133     Delta-E=       -0.000000037534 Rises=F Damp=F
 DIIS: error= 1.19D-06 at cycle   4 NSaved=   4.
 NSaved= 4 IEnMin= 4 EnMin= -687.540984814133     IErMin= 4 ErrMin= 1.19D-06
 ErrMax= 1.19D-06  0.00D+00 EMaxC= 1.00D-01 BMatC= 3.56D-10 BMatP= 2.46D-08
 IDIUse=1 WtCom= 1.00D+00 WtEn= 0.00D+00
 Coeff-Com: -0.715D-02 0.133D+00 0.120D+00 0.754D+00
 Coeff:     -0.715D-02 0.133D+00 0.120D+00 0.754D+00
 Gap=     0.293 Goal=   None    Shift=    0.000
 RMSDP=1.74D-07 MaxDP=6.21D-06 DE=-3.75D-08 OVMax= 1.19D-05

 Cycle  13  Pass 1  IDiag  1:
 RMSU=  1.19D-07    CP:  1.00D+00  1.07D+00  8.51D-01  1.08D+00
 E= -687.540984814590     Delta-E=       -0.000000000456 Rises=F Damp=F
 DIIS: error= 8.97D-07 at cycle   5 NSaved=   5.
 NSaved= 5 IEnMin= 5 EnMin= -687.540984814590     IErMin= 5 ErrMin= 8.97D-07
 ErrMax= 8.97D-07  0.00D+00 EMaxC= 1.00D-01 BMatC= 1.74D-10 BMatP= 3.56D-10
 IDIUse=1 WtCom= 1.00D+00 WtEn= 0.00D+00
 Coeff-Com:  0.269D-02-0.713D-01-0.499D-01 0.400D+00 0.719D+00
 Coeff:      0.269D-02-0.713D-01-0.499D-01 0.400D+00 0.719D+00
 Gap=     0.293 Goal=   None    Shift=    0.000
 RMSDP=1.14D-07 MaxDP=2.43D-06 DE=-4.56D-10 OVMax= 1.04D-05

 Cycle  14  Pass 1  IDiag  1:
 RMSU=  7.12D-08    CP:  1.00D+00  1.07D+00  8.76D-01  1.18D+00  1.10D+00
 E= -687.540984814874     Delta-E=       -0.000000000284 Rises=F Damp=F
 DIIS: error= 2.02D-07 at cycle   6 NSaved=   6.
 NSaved= 6 IEnMin= 6 EnMin= -687.540984814874     IErMin= 6 ErrMin= 2.02D-07
 ErrMax= 2.02D-07  0.00D+00 EMaxC= 1.00D-01 BMatC= 1.73D-11 BMatP= 1.74D-10
 IDIUse=1 WtCom= 1.00D+00 WtEn= 0.00D+00
 Coeff-Com:  0.182D-02-0.418D-01-0.344D-01 0.759D-01 0.282D+00 0.717D+00
 Coeff:      0.182D-02-0.418D-01-0.344D-01 0.759D-01 0.282D+00 0.717D+00
 Gap=     0.293 Goal=   None    Shift=    0.000
 RMSDP=3.36D-08 MaxDP=9.52D-07 DE=-2.84D-10 OVMax= 4.02D-06

 Cycle  15  Pass 1  IDiag  1:
 RMSU=  2.18D-08    CP:  1.00D+00  1.07D+00  8.79D-01  1.19D+00  1.27D+00
                    CP:  1.15D+00
 E= -687.540984814887     Delta-E=       -0.000000000013 Rises=F Damp=F
 DIIS: error= 9.66D-08 at cycle   7 NSaved=   7.
 NSaved= 7 IEnMin= 7 EnMin= -687.540984814887     IErMin= 7 ErrMin= 9.66D-08
 ErrMax= 9.66D-08  0.00D+00 EMaxC= 1.00D-01 BMatC= 3.99D-12 BMatP= 1.73D-11
 IDIUse=1 WtCom= 1.00D+00 WtEn= 0.00D+00
 Coeff-Com: -0.132D-03 0.604D-02 0.733D-03-0.974D-01-0.125D+00 0.296D+00
 Coeff-Com:  0.920D+00
 Coeff:     -0.132D-03 0.604D-02 0.733D-03-0.974D-01-0.125D+00 0.296D+00
 Coeff:      0.920D+00
 Gap=     0.293 Goal=   None    Shift=    0.000
 RMSDP=2.44D-08 MaxDP=5.24D-07 DE=-1.30D-11 OVMax= 3.04D-06

 Cycle  16  Pass 1  IDiag  1:
 RMSU=  8.25D-09    CP:  1.00D+00  1.07D+00  8.80D-01  1.20D+00  1.37D+00
                    CP:  1.39D+00  1.11D+00
 E= -687.540984814899     Delta-E=       -0.000000000012 Rises=F Damp=F
 DIIS: error= 3.62D-08 at cycle   8 NSaved=   8.
 NSaved= 8 IEnMin= 8 EnMin= -687.540984814899     IErMin= 8 ErrMin= 3.62D-08
 ErrMax= 3.62D-08  0.00D+00 EMaxC= 1.00D-01 BMatC= 3.58D-13 BMatP= 3.99D-12
 IDIUse=1 WtCom= 1.00D+00 WtEn= 0.00D+00
 Coeff-Com: -0.166D-03 0.529D-02 0.229D-02-0.517D-01-0.772D-01 0.954D-01
 Coeff-Com:  0.441D+00 0.585D+00
 Coeff:     -0.166D-03 0.529D-02 0.229D-02-0.517D-01-0.772D-01 0.954D-01
 Coeff:      0.441D+00 0.585D+00
 Gap=     0.293 Goal=   None    Shift=    0.000
 RMSDP=3.85D-09 MaxDP=1.26D-07 DE=-1.23D-11 OVMax= 2.54D-07

 SCF Done:  E(RLC-wHPBE) =  -687.540984815     A.U. after   16 cycles
            NFock= 16  Conv=0.38D-08     -V/T= 2.0119
 KE= 6.794365138773D+02 PE=-3.742646794685D+03 EE= 1.292039797592D+03
 Leave Link  502 at Wed May 11 07:12:50 2022, MaxMem=  6442450944 cpu:            1154.3 elap:              73.2
 (Enter /mnt/gpfs3_amd/share/apps/amd/gaussian/g16-A.03/g16/l601.exe)
 Copying SCF densities to generalized density rwf, IOpCl= 0 IROHF=0.

 **********************************************************************

            Population analysis using the SCF density.

 **********************************************************************

 Orbital symmetries:
       Occupied  (A) (A) (A) (A) (A) (A) (A) (A) (A) (A) (A) (A)
                 (A) (A) (A) (A) (A) (A) (A) (A) (A) (A) (A) (A)
                 (A) (A) (A) (A) (A) (A) (A) (A) (A) (A) (A) (A)
                 (A) (A) (A) (A) (A) (A) (A) (A) (A) (A) (A) (A)
                 (A) (A) (A) (A) (A) (A) (A) (A) (A) (A)
       Virtual   (A) (A) (A) (A) (A) (A) (A) (A) (A) (A) (A) (A)
                 (A) (A) (A) (A) (A) (A) (A) (A) (A) (A) (A) (A)
                 (A) (A) (A) (A) (A) (A) (A) (A) (A) (A) (A) (A)
                 (A) (A) (A) (A) (A) (A) (A) (A) (A) (A) (A) (A)
                 (A) (A) (A) (A) (A) (A) (A) (A) (A) (A) (A) (A)
                 (A) (A) (A) (A) (A) (A) (A) (A) (A) (A) (A) (A)
                 (A) (A) (A) (A) (A) (A) (A) (A) (A) (A) (A) (A)
                 (A) (A) (A) (A) (A) (A) (A) (A) (A) (A) (A) (A)
                 (A) (A) (A) (A) (A) (A) (A) (A) (A) (A) (A) (A)
                 (A) (A) (A) (A) (A) (A) (A) (A) (A) (A) (A) (A)
                 (A) (A) (A) (A) (A) (A) (A) (A) (A) (A) (A) (A)
                 (A) (A) (A) (A) (A) (A) (A) (A) (A) (A) (A) (A)
                 (A) (A) (A) (A) (A) (A) (A) (A) (A) (A) (A) (A)
                 (A) (A) (A) (A) (A) (A) (A) (A) (A) (A) (A) (A)
                 (A) (A) (A) (A) (A) (A) (A) (A) (A) (A) (A) (A)
                 (A) (A) (A) (A) (A) (A) (A) (A) (A) (A) (A) (A)
                 (A) (A) (A) (A) (A) (A) (A) (A) (A) (A) (A) (A)
                 (A) (A) (A) (A) (A) (A) (A) (A) (A) (A) (A) (A)
                 (A) (A) (A) (A) (A) (A) (A) (A) (A) (A) (A) (A)
                 (A) (A) (A) (A) (A) (A) (A) (A) (A) (A) (A) (A)
                 (A) (A) (A) (A) (A)
 The electronic state is 1-A.
 Alpha  occ. eigenvalues --  -14.34960 -14.34480 -10.29633 -10.28613 -10.24376
 Alpha  occ. eigenvalues --  -10.20677 -10.20111 -10.16534 -10.15904 -10.15585
 Alpha  occ. eigenvalues --  -10.15533 -10.15176 -10.15147 -10.14990 -10.14564
 Alpha  occ. eigenvalues --  -10.14325 -10.14165  -1.20313  -1.17129  -1.12179
 Alpha  occ. eigenvalues --   -1.03092  -1.01406  -0.93743  -0.93269  -0.91905
 Alpha  occ. eigenvalues --   -0.91220  -0.85125  -0.84260  -0.82009  -0.80686
 Alpha  occ. eigenvalues --   -0.78888  -0.77870  -0.77474  -0.74430  -0.73216
 Alpha  occ. eigenvalues --   -0.69817  -0.68459  -0.66906  -0.65434  -0.64802
 Alpha  occ. eigenvalues --   -0.63676  -0.62042  -0.61894  -0.61620  -0.60958
 Alpha  occ. eigenvalues --   -0.59971  -0.59000  -0.57653  -0.55920  -0.54779
 Alpha  occ. eigenvalues --   -0.53992  -0.53513  -0.52742  -0.50707  -0.46069
 Alpha  occ. eigenvalues --   -0.45743  -0.44897  -0.41305
 Alpha virt. eigenvalues --   -0.11968  -0.09279  -0.08508  -0.07999  -0.05870
 Alpha virt. eigenvalues --   -0.03648  -0.03270  -0.00426   0.01365   0.02173
 Alpha virt. eigenvalues --    0.03346   0.04991   0.05660   0.06611   0.07375
 Alpha virt. eigenvalues --    0.08062   0.08377   0.08569   0.10011   0.10509
 Alpha virt. eigenvalues --    0.11190   0.12146   0.12335   0.13179   0.15827
 Alpha virt. eigenvalues --    0.17774   0.19711   0.21181   0.22288   0.23053
 Alpha virt. eigenvalues --    0.23650   0.24086   0.25800   0.26852   0.27809
 Alpha virt. eigenvalues --    0.29707   0.30514   0.31264   0.33549   0.34348
 Alpha virt. eigenvalues --    0.35034   0.35640   0.36198   0.37209   0.37342
 Alpha virt. eigenvalues --    0.38266   0.38723   0.39464   0.41013   0.41453
 Alpha virt. eigenvalues --    0.42306   0.43550   0.43662   0.44030   0.44615
 Alpha virt. eigenvalues --    0.45324   0.46104   0.47068   0.49094   0.49550
 Alpha virt. eigenvalues --    0.50171   0.50277   0.51643   0.52490   0.53046
 Alpha virt. eigenvalues --    0.54164   0.54711   0.55998   0.56646   0.57511
 Alpha virt. eigenvalues --    0.57743   0.58609   0.59339   0.59588   0.61128
 Alpha virt. eigenvalues --    0.61600   0.61979   0.62174   0.63224   0.64323
 Alpha virt. eigenvalues --    0.64732   0.65410   0.66150   0.66998   0.67550
 Alpha virt. eigenvalues --    0.68047   0.68352   0.69399   0.70196   0.70635
 Alpha virt. eigenvalues --    0.71483   0.72483   0.73199   0.75451   0.75531
 Alpha virt. eigenvalues --    0.76119   0.76604   0.80286   0.82375   0.83837
 Alpha virt. eigenvalues --    0.83975   0.86643   0.87968   0.88995   0.91528
 Alpha virt. eigenvalues --    0.96204   0.99637   1.00932   1.01941   1.02544
 Alpha virt. eigenvalues --    1.03395   1.04723   1.09909   1.10424   1.11169
 Alpha virt. eigenvalues --    1.13497   1.14393   1.15400   1.15509   1.17506
 Alpha virt. eigenvalues --    1.18689   1.19882   1.20217   1.21554   1.22955
 Alpha virt. eigenvalues --    1.23553   1.24000   1.24688   1.25097   1.25943
 Alpha virt. eigenvalues --    1.28173   1.29612   1.39908   1.43553   1.46461
 Alpha virt. eigenvalues --    1.47226   1.52179   1.53933   1.54395   1.58232
 Alpha virt. eigenvalues --    1.59761   1.60025   1.60556   1.61330   1.61490
 Alpha virt. eigenvalues --    1.62781   1.64317   1.65151   1.66506   1.66705
 Alpha virt. eigenvalues --    1.67443   1.68041   1.68703   1.69445   1.69619
 Alpha virt. eigenvalues --    1.70214   1.71614   1.72994   1.73179   1.73542
 Alpha virt. eigenvalues --    1.75179   1.75654   1.76167   1.77463   1.78588
 Alpha virt. eigenvalues --    1.79126   1.84772   1.87332   1.88285   1.89180
 Alpha virt. eigenvalues --    1.89936   1.90418   1.90872   1.91544   1.92046
 Alpha virt. eigenvalues --    1.92199   1.93525   1.95079   1.95846   1.96263
 Alpha virt. eigenvalues --    1.98325   2.01646   2.03642   2.06348   2.06878
 Alpha virt. eigenvalues --    2.07150   2.08562   2.09043   2.10150   2.10679
 Alpha virt. eigenvalues --    2.11438   2.13378   2.16814   2.18902   2.19411
 Alpha virt. eigenvalues --    2.20402   2.21597   2.21941   2.23102   2.24298
 Alpha virt. eigenvalues --    2.24565   2.26407   2.27008   2.28562   2.31333
 Alpha virt. eigenvalues --    2.34902   2.36738   2.42989   2.44511   2.45503
 Alpha virt. eigenvalues --    2.49361   2.50008   2.50782   2.53001   2.53347
 Alpha virt. eigenvalues --    2.54105   2.56304   2.60363   2.63281   2.64370
 Alpha virt. eigenvalues --    2.64686   2.65094   2.68203   2.70678   2.71564
 Alpha virt. eigenvalues --    2.73237   2.76038   2.77605   2.78750   2.79924
 Alpha virt. eigenvalues --    2.79953   2.88034   2.91408   2.98784   2.99253
 Alpha virt. eigenvalues --    3.02036   3.03755   3.08113   3.12523   3.17613
 Alpha virt. eigenvalues --    3.26488   3.34991   3.45537   3.52347   3.55753
          Condensed to atoms (all electrons):
               1          2          3          4          5          6
     1  N    5.803566   0.506579  -0.046828  -0.039512  -0.000085  -0.000619
     2  C    0.506579   4.880219   0.332821   0.319182  -0.046016  -0.010434
     3  C   -0.046828   0.332821   5.304243   0.159545  -0.053336   0.005490
     4  C   -0.039512   0.319182   0.159545   5.021291   0.463105  -0.051659
     5  N   -0.000085  -0.046016  -0.053336   0.463105   6.583846   0.234843
     6  C   -0.000619  -0.010434   0.005490  -0.051659   0.234843   5.338577
     7  C   -0.001321  -0.001556   0.001428  -0.005515  -0.067279   0.230140
     8  C    0.000010  -0.000088  -0.000029   0.000167   0.007877   0.116236
     9  C    0.000000  -0.000012   0.000001   0.000080  -0.000213  -0.160714
    10  C    0.000003  -0.000004   0.000001   0.000051   0.008934   0.128689
    11  C   -0.000040   0.000420  -0.000261   0.002622  -0.068502   0.263672
    12  C   -0.000070   0.005538  -0.005315  -0.050228   0.245700  -0.044726
    13  C   -0.000000  -0.000231   0.000236   0.004334  -0.070067   0.001333
    14  C    0.000000   0.000003  -0.000002   0.000012   0.008723  -0.001237
    15  C    0.000000   0.000005  -0.000018   0.000117  -0.000185   0.000155
    16  C    0.000000  -0.000041   0.000096   0.000150   0.006900  -0.000306
    17  C    0.000004   0.002294   0.001524  -0.006637  -0.073851   0.006543
    18  H    0.381099  -0.017677   0.008072  -0.019360   0.000357   0.000415
    19  H    0.358786  -0.004675  -0.012273   0.011735  -0.000062  -0.000018
    20  H   -0.001103  -0.048148   0.466007  -0.054711  -0.001174  -0.000093
    21  H    0.000926  -0.000057  -0.000505   0.002782  -0.009268  -0.079911
    22  H   -0.000006   0.000010  -0.000001  -0.000029  -0.000151   0.014550
    23  H    0.000000  -0.000000  -0.000000  -0.000000   0.000007  -0.001748
    24  H   -0.000000   0.000000  -0.000000   0.000000  -0.000126   0.014026
    25  H    0.000000  -0.000046  -0.000042  -0.000535  -0.013073  -0.064415
    26  H   -0.000000  -0.000040  -0.000021  -0.000686  -0.014929   0.008172
    27  H   -0.000000  -0.000000   0.000000   0.000003  -0.000118  -0.000030
    28  H    0.000000  -0.000000  -0.000000  -0.000000   0.000008   0.000001
    29  H   -0.000000  -0.000002   0.000017  -0.000044  -0.000129   0.000007
    30  H   -0.000004   0.000851   0.000965   0.003181  -0.012930  -0.000426
               7          8          9         10         11         12
     1  N   -0.001321   0.000010   0.000000   0.000003  -0.000040  -0.000070
     2  C   -0.001556  -0.000088  -0.000012  -0.000004   0.000420   0.005538
     3  C    0.001428  -0.000029   0.000001   0.000001  -0.000261  -0.005315
     4  C   -0.005515   0.000167   0.000080   0.000051   0.002622  -0.050228
     5  N   -0.067279   0.007877  -0.000213   0.008934  -0.068502   0.245700
     6  C    0.230140   0.116236  -0.160714   0.128689   0.263672  -0.044726
     7  C    5.201445   0.272566   0.084388  -0.146879   0.063594   0.004740
     8  C    0.272566   5.024955   0.288891   0.104870  -0.138935  -0.000417
     9  C    0.084388   0.288891   5.053117   0.273576   0.086993   0.000143
    10  C   -0.146879   0.104870   0.273576   5.042243   0.266487  -0.000980
    11  C    0.063594  -0.138935   0.086993   0.266487   5.097554   0.001761
    12  C    0.004740  -0.000417   0.000143  -0.000980   0.001761   5.262484
    13  C    0.000095   0.000080  -0.000029  -0.000990  -0.006402   0.284967
    14  C   -0.000041   0.000008  -0.000007   0.000087  -0.000568   0.114090
    15  C   -0.000001  -0.000000   0.000000  -0.000006  -0.000056  -0.151500
    16  C    0.000003  -0.000000  -0.000000   0.000004   0.000043   0.111905
    17  C   -0.000621   0.000000   0.000001  -0.000050   0.000403   0.254131
    18  H    0.003456   0.000433   0.000004  -0.000020  -0.000031  -0.000010
    19  H   -0.000012   0.000001  -0.000000  -0.000000   0.000001   0.000007
    20  H   -0.000016  -0.000000  -0.000000   0.000000   0.000001   0.000514
    21  H    0.443257  -0.053285   0.013073  -0.002110   0.012632  -0.000365
    22  H   -0.065116   0.441203  -0.060916   0.012106  -0.001288   0.000008
    23  H    0.014032  -0.065328   0.446097  -0.064942   0.013963   0.000001
    24  H   -0.001371   0.012251  -0.064479   0.444837  -0.063165  -0.000027
    25  H    0.013255  -0.002152   0.013035  -0.059912   0.447676   0.006560
    26  H   -0.001215   0.000033   0.000330  -0.001655  -0.000439  -0.061458
    27  H    0.000001  -0.000000  -0.000000   0.000001   0.000031   0.013674
    28  H    0.000000   0.000000  -0.000000   0.000000  -0.000000  -0.001470
    29  H    0.000000   0.000000   0.000000  -0.000000  -0.000001   0.014094
    30  H    0.000003   0.000000   0.000000  -0.000001   0.000032  -0.076103
              13         14         15         16         17         18
     1  N   -0.000000   0.000000   0.000000   0.000000   0.000004   0.381099
     2  C   -0.000231   0.000003   0.000005  -0.000041   0.002294  -0.017677
     3  C    0.000236  -0.000002  -0.000018   0.000096   0.001524   0.008072
     4  C    0.004334   0.000012   0.000117   0.000150  -0.006637  -0.019360
     5  N   -0.070067   0.008723  -0.000185   0.006900  -0.073851   0.000357
     6  C    0.001333  -0.001237   0.000155  -0.000306   0.006543   0.000415
     7  C    0.000095  -0.000041  -0.000001   0.000003  -0.000621   0.003456
     8  C    0.000080   0.000008  -0.000000  -0.000000   0.000000   0.000433
     9  C   -0.000029  -0.000007   0.000000  -0.000000   0.000001   0.000004
    10  C   -0.000990   0.000087  -0.000006   0.000004  -0.000050  -0.000020
    11  C   -0.006402  -0.000568  -0.000056   0.000043   0.000403  -0.000031
    12  C    0.284967   0.114090  -0.151500   0.111905   0.254131  -0.000010
    13  C    5.098796   0.281782   0.079624  -0.132509   0.050855   0.000000
    14  C    0.281782   5.020838   0.287192   0.096601  -0.136333  -0.000000
    15  C    0.079624   0.287192   5.042677   0.299065   0.076981   0.000000
    16  C   -0.132509   0.096601   0.299065   4.984440   0.302799  -0.000000
    17  C    0.050855  -0.136333   0.076981   0.302799   5.145889   0.000001
    18  H    0.000000  -0.000000   0.000000  -0.000000   0.000001   0.480210
    19  H   -0.000000   0.000000   0.000000   0.000000  -0.000000  -0.025205
    20  H   -0.000014   0.000001  -0.000001   0.000057   0.000453  -0.000101
    21  H    0.000016  -0.000001   0.000000   0.000000  -0.000012   0.000632
    22  H   -0.000003  -0.000000   0.000000   0.000000   0.000000   0.000010
    23  H   -0.000001   0.000000  -0.000000   0.000000   0.000000  -0.000001
    24  H    0.000031   0.000000  -0.000000  -0.000000  -0.000000  -0.000000
    25  H   -0.000148  -0.001038   0.000138   0.000021  -0.000409  -0.000002
    26  H    0.443037  -0.059542   0.012768  -0.001935   0.012441  -0.000000
    27  H   -0.064441   0.445050  -0.063243   0.011916  -0.001370   0.000000
    28  H    0.013908  -0.064228   0.443154  -0.063858   0.013797  -0.000000
    29  H   -0.001214   0.011789  -0.060241   0.440753  -0.064172  -0.000000
    30  H    0.011960  -0.001938   0.013118  -0.053135   0.440702   0.000002
              19         20         21         22         23         24
     1  N    0.358786  -0.001103   0.000926  -0.000006   0.000000  -0.000000
     2  C   -0.004675  -0.048148  -0.000057   0.000010  -0.000000   0.000000
     3  C   -0.012273   0.466007  -0.000505  -0.000001  -0.000000  -0.000000
     4  C    0.011735  -0.054711   0.002782  -0.000029  -0.000000   0.000000
     5  N   -0.000062  -0.001174  -0.009268  -0.000151   0.000007  -0.000126
     6  C   -0.000018  -0.000093  -0.079911   0.014550  -0.001748   0.014026
     7  C   -0.000012  -0.000016   0.443257  -0.065116   0.014032  -0.001371
     8  C    0.000001  -0.000000  -0.053285   0.441203  -0.065328   0.012251
     9  C   -0.000000  -0.000000   0.013073  -0.060916   0.446097  -0.064479
    10  C   -0.000000   0.000000  -0.002110   0.012106  -0.064942   0.444837
    11  C    0.000001   0.000001   0.012632  -0.001288   0.013963  -0.063165
    12  C    0.000007   0.000514  -0.000365   0.000008   0.000001  -0.000027
    13  C   -0.000000  -0.000014   0.000016  -0.000003  -0.000001   0.000031
    14  C    0.000000   0.000001  -0.000001  -0.000000   0.000000   0.000000
    15  C    0.000000  -0.000001   0.000000   0.000000  -0.000000  -0.000000
    16  C    0.000000   0.000057   0.000000   0.000000   0.000000  -0.000000
    17  C   -0.000000   0.000453  -0.000012   0.000000   0.000000  -0.000000
    18  H   -0.025205  -0.000101   0.000632   0.000010  -0.000001  -0.000000
    19  H    0.479760   0.000594  -0.000024   0.000000  -0.000000   0.000000
    20  H    0.000594   0.546461  -0.000005   0.000000  -0.000000  -0.000000
    21  H   -0.000024  -0.000005   0.670386  -0.012028  -0.000186   0.000021
    22  H    0.000000   0.000000  -0.012028   0.645660  -0.011153  -0.000191
    23  H   -0.000000  -0.000000  -0.000186  -0.011153   0.637842  -0.011124
    24  H    0.000000  -0.000000   0.000021  -0.000191  -0.011124   0.637446
    25  H   -0.000000  -0.000000  -0.000116   0.000016  -0.000174  -0.011040
    26  H   -0.000000  -0.000001   0.000054  -0.000003   0.000001  -0.000010
    27  H   -0.000000  -0.000000  -0.000000   0.000000   0.000000  -0.000000
    28  H    0.000000  -0.000000  -0.000000   0.000000  -0.000000   0.000000
    29  H   -0.000000   0.000000   0.000000  -0.000000   0.000000   0.000000
    30  H   -0.000001  -0.000012  -0.000001  -0.000000  -0.000000  -0.000000
              25         26         27         28         29         30
     1  N    0.000000  -0.000000  -0.000000   0.000000  -0.000000  -0.000004
     2  C   -0.000046  -0.000040  -0.000000  -0.000000  -0.000002   0.000851
     3  C   -0.000042  -0.000021   0.000000  -0.000000   0.000017   0.000965
     4  C   -0.000535  -0.000686   0.000003  -0.000000  -0.000044   0.003181
     5  N   -0.013073  -0.014929  -0.000118   0.000008  -0.000129  -0.012930
     6  C   -0.064415   0.008172  -0.000030   0.000001   0.000007  -0.000426
     7  C    0.013255  -0.001215   0.000001   0.000000   0.000000   0.000003
     8  C   -0.002152   0.000033  -0.000000   0.000000   0.000000   0.000000
     9  C    0.013035   0.000330  -0.000000  -0.000000   0.000000   0.000000
    10  C   -0.059912  -0.001655   0.000001   0.000000  -0.000000  -0.000001
    11  C    0.447676  -0.000439   0.000031  -0.000000  -0.000001   0.000032
    12  C    0.006560  -0.061458   0.013674  -0.001470   0.014094  -0.076103
    13  C   -0.000148   0.443037  -0.064441   0.013908  -0.001214   0.011960
    14  C   -0.001038  -0.059542   0.445050  -0.064228   0.011789  -0.001938
    15  C    0.000138   0.012768  -0.063243   0.443154  -0.060241   0.013118
    16  C    0.000021  -0.001935   0.011916  -0.063858   0.440753  -0.053135
    17  C   -0.000409   0.012441  -0.001370   0.013797  -0.064172   0.440702
    18  H   -0.000002  -0.000000   0.000000  -0.000000  -0.000000   0.000002
    19  H   -0.000000  -0.000000  -0.000000   0.000000  -0.000000  -0.000001
    20  H   -0.000000  -0.000001  -0.000000  -0.000000   0.000000  -0.000012
    21  H   -0.000116   0.000054  -0.000000  -0.000000   0.000000  -0.000001
    22  H    0.000016  -0.000003   0.000000   0.000000  -0.000000  -0.000000
    23  H   -0.000174   0.000001   0.000000  -0.000000   0.000000  -0.000000
    24  H   -0.011040  -0.000010  -0.000000   0.000000   0.000000  -0.000000
    25  H    0.631962  -0.000208  -0.000002  -0.000000  -0.000003   0.000037
    26  H   -0.000208   0.635499  -0.011439  -0.000190   0.000015  -0.000110
    27  H   -0.000002  -0.011439   0.641660  -0.011051  -0.000185   0.000019
    28  H   -0.000000  -0.000190  -0.011051   0.640221  -0.010967  -0.000201
    29  H   -0.000003   0.000015  -0.000185  -0.010967   0.646500  -0.012617
    30  H    0.000037  -0.000110   0.000019  -0.000201  -0.012617   0.677472
 Mulliken charges:
               1
     1  N    0.038614
     2  C    0.081105
     3  C   -0.161816
     4  C    0.240558
     5  N   -0.128806
     6  C    0.053488
     7  C   -0.041460
     8  C   -0.009347
     9  C    0.026639
    10  C   -0.004340
    11  C    0.021801
    12  C    0.072351
    13  C    0.004996
    14  C   -0.001240
    15  C    0.020257
    16  C   -0.002968
    17  C   -0.025362
    18  H    0.187716
    19  H    0.191387
    20  H    0.091290
    21  H    0.014093
    22  H    0.037323
    23  H    0.042714
    24  H    0.042921
    25  H    0.040615
    26  H    0.041530
    27  H    0.039525
    28  H    0.040877
    29  H    0.036400
    30  H    0.009139
 Sum of Mulliken charges =   1.00000
 Mulliken charges with hydrogens summed into heavy atoms:
               1
     1  N    0.417716
     2  C    0.081105
     3  C   -0.070526
     4  C    0.240558
     5  N   -0.128806
     6  C    0.053488
     7  C   -0.027367
     8  C    0.027975
     9  C    0.069354
    10  C    0.038581
    11  C    0.062417
    12  C    0.072351
    13  C    0.046526
    14  C    0.038284
    15  C    0.061134
    16  C    0.033432
    17  C   -0.016223
 Electronic spatial extent (au):  <R**2>=           4068.1585
 Charge=              1.0000 electrons
 Dipole moment (field-independent basis, Debye):
    X=             -4.2883    Y=              6.8529    Z=              0.3353  Tot=              8.0910
 Quadrupole moment (field-independent basis, Debye-Ang):
   XX=            -54.6520   YY=            -49.8681   ZZ=            -94.6380
   XY=            -11.9310   XZ=              1.2057   YZ=              0.7096
 Traceless Quadrupole moment (field-independent basis, Debye-Ang):
   XX=             11.7340   YY=             16.5179   ZZ=            -28.2520
   XY=            -11.9310   XZ=              1.2057   YZ=              0.7096
 Octapole moment (field-independent basis, Debye-Ang**2):
  XXX=            -25.8706  YYY=            117.5030  ZZZ=              1.6410  XYY=            -68.4746
  XXY=             29.1841  XXZ=             -0.9360  XZZ=             -7.3972  YZZ=             -2.8145
  YYZ=              8.6786  XYZ=              8.5785
 Hexadecapole moment (field-independent basis, Debye-Ang**3):
 XXXX=          -2518.2591 YYYY=          -1387.5886 ZZZZ=           -315.9563 XXXY=           -169.4676
 XXXZ=             45.0562 YYYX=           -179.6039 YYYZ=            -26.2464 ZZZX=              7.8381
 ZZZY=             -5.0857 XXYY=           -548.8916 XXZZ=           -584.3144 YYZZ=           -369.3351
 XXYZ=             59.3547 YYXZ=            -45.7836 ZZXY=             -3.9940
 N-N= 1.083629498401D+03 E-N=-3.742646790897D+03  KE= 6.794365138773D+02
 No NMR shielding tensors so no spin-rotation constants.
 Leave Link  601 at Wed May 11 07:12:51 2022, MaxMem=  6442450944 cpu:               4.3 elap:               0.3
 (Enter /mnt/gpfs3_amd/share/apps/amd/gaussian/g16-A.03/g16/l9999.exe)

 Test job not archived.
 1\1\GINC-ROME008\SP\RLC-wHPBE\def2SVP\C15H13N2(1+)\RDU230\11-May-2022\
 0\\#P LC-wHPBE/Def2SVP iop(3/107=0225700000, 3/108=0225700000)\\H13 C1
 5 N2\\1,1\N,0,-2.574002,3.056798,0.184555\C,0,-1.326958,2.719512,0.036
 43\C,0,0.007265,3.070413,-0.172528\C,0,-0.3107,1.752185,-0.051933\N,0,
 0.049956,0.442556,-0.030581\C,0,-0.972295,-0.557288,0.024026\C,0,-2.09
 5518,-0.471064,-0.823239\C,0,-3.068088,-1.46327,-0.748155\C,0,-2.92979
 4,-2.52627,0.166683\C,0,-1.812505,-2.602211,1.007596\C,0,-0.825265,-1.
 619832,0.945373\C,0,1.402348,0.062636,-0.056606\C,0,1.751495,-1.154509
 ,-0.720943\C,0,3.077336,-1.556752,-0.753303\C,0,4.06412,-0.764585,-0.1
 39293\C,0,3.718359,0.443921,0.51667\C,0,2.401815,0.865356,0.556678\H,0
 ,-3.300503,2.356233,0.355291\H,0,-2.858199,4.041775,0.157988\H,0,0.752
 823,3.862221,-0.315605\H,0,-2.17415,0.325442,-1.576924\H,0,-3.934907,-
 1.430605,-1.421712\H,0,-3.707077,-3.300833,0.219576\H,0,-1.718101,-3.4
 2428,1.729215\H,0,0.031017,-1.642314,1.633546\H,0,0.978758,-1.727429,-
 1.250542\H,0,3.358839,-2.476329,-1.283045\H,0,5.116849,-1.07915,-0.173
 469\H,0,4.498875,1.036258,1.012711\H,0,2.134402,1.774092,1.110425\\Ver
 sion=AM64L-G16RevA.03\State=1-A\HF=-687.5409848\RMSD=3.847e-09\Dipole=
 -1.6871584,2.6961258,0.131911\Quadrupole=8.7239554,12.2806826,-21.0046
 381,-8.870375,0.8963974,0.5275988\PG=C01 [X(C15H13N2)]\\@


 THERE IS AN OLD, OLD RECIPE IN MAINE FOR STEWING COOT. PLACE THE
 BIRD IN A KETTLE OF WATER WITH A RED BUILDING BRICK FREE OF MORTAR AND
 BLEMISHES. PARBOIL THE COOT AND BRICK TOGETHER FOR THREE HOURS.
 POUR OFF THE WATER, REFILL THE KETTLE, AND AGAIN PARBOIL FOR THREE HOURS.
 ONCE AGAIN POUR OFF THE WATER, FOR THE LAST TIME ADD FRESH WATER,
 AND LET THE COOT AND BRICK SIMMER TOGETHER OVERNIGHT. IN THE MORNING,
 THROW AWAY THE COOT AND EAT THE BRICK.
 Job cpu time:       0 days  0 hours 20 minutes 15.8 seconds.
 Elapsed time:       0 days  0 hours  1 minutes 17.3 seconds.
 File lengths (MBytes):  RWF=    168 Int=      0 D2E=      0 Chk=     16 Scr=     16
 Normal termination of Gaussian 16 at Wed May 11 07:12:51 2022.
