 Entering Gaussian System, Link 0=/mnt/gpfs3_amd/share/apps/amd/gaussian/g16-A.03/g16/g16
 Input=/scratch/rdu230/d3tales/high_throughput/runfiles//06IVBN/gaussian/gas_phase/opt/freq_opt_cation1.com
 Output=/scratch/rdu230/d3tales/high_throughput/runfiles//06IVBN/gaussian/gas_phase/opt/freq_opt_cation1.log
 Initial command:
 /mnt/gpfs3_amd/share/apps/amd/gaussian/g16-A.03/g16/l1.exe "/scratch/rdu230/d3tales/high_throughput/runfiles/06IVBN/gaussian/gas_phase/opt/Gau-2153927.inp" -scrdir="/scratch/rdu230/d3tales/high_throughput/runfiles/06IVBN/gaussian/gas_phase/opt/"
 Entering Link 1 = /mnt/gpfs3_amd/share/apps/amd/gaussian/g16-A.03/g16/l1.exe PID=   2153928.
  
 Copyright (c) 1988,1990,1992,1993,1995,1998,2003,2009,2016,
            Gaussian, Inc.  All Rights Reserved.
  
 This is part of the Gaussian(R) 16 program.  It is based on
 the Gaussian(R) 09 system (copyright 2009, Gaussian, Inc.),
 the Gaussian(R) 03 system (copyright 2003, Gaussian, Inc.),
 the Gaussian(R) 98 system (copyright 1998, Gaussian, Inc.),
 the Gaussian(R) 94 system (copyright 1995, Gaussian, Inc.),
 the Gaussian 92(TM) system (copyright 1992, Gaussian, Inc.),
 the Gaussian 90(TM) system (copyright 1990, Gaussian, Inc.),
 the Gaussian 88(TM) system (copyright 1988, Gaussian, Inc.),
 the Gaussian 86(TM) system (copyright 1986, Carnegie Mellon
 University), and the Gaussian 82(TM) system (copyright 1983,
 Carnegie Mellon University). Gaussian is a federally registered
 trademark of Gaussian, Inc.
  
 This software contains proprietary and confidential information,
 including trade secrets, belonging to Gaussian, Inc.
  
 This software is provided under written license and may be
 used, copied, transmitted, or stored only in accord with that
 written license.
  
 The following legend is applicable only to US Government
 contracts under FAR:
  
                    RESTRICTED RIGHTS LEGEND
  
 Use, reproduction and disclosure by the US Government is
 subject to restrictions as set forth in subparagraphs (a)
 and (c) of the Commercial Computer Software - Restricted
 Rights clause in FAR 52.227-19.
  
 Gaussian, Inc.
 340 Quinnipiac St., Bldg. 40, Wallingford CT 06492
  
  
 ---------------------------------------------------------------
 Warning -- This program may not be used in any manner that
 competes with the business of Gaussian, Inc. or will provide
 assistance to any competitor of Gaussian, Inc.  The licensee
 of this program is prohibited from giving any competitor of
 Gaussian, Inc. access to this program.  By using this program,
 the user acknowledges that Gaussian, Inc. is engaged in the
 business of creating and licensing software in the field of
 computational chemistry and represents and warrants to the
 licensee that it is not a competitor of Gaussian, Inc. and that
 it will not use this program in any manner prohibited above.
 ---------------------------------------------------------------
  

 Cite this work as:
 Gaussian 16, Revision A.03,
 M. J. Frisch, G. W. Trucks, H. B. Schlegel, G. E. Scuseria, 
 M. A. Robb, J. R. Cheeseman, G. Scalmani, V. Barone, 
 G. A. Petersson, H. Nakatsuji, X. Li, M. Caricato, A. V. Marenich, 
 J. Bloino, B. G. Janesko, R. Gomperts, B. Mennucci, H. P. Hratchian, 
 J. V. Ortiz, A. F. Izmaylov, J. L. Sonnenberg, D. Williams-Young, 
 F. Ding, F. Lipparini, F. Egidi, J. Goings, B. Peng, A. Petrone, 
 T. Henderson, D. Ranasinghe, V. G. Zakrzewski, J. Gao, N. Rega, 
 G. Zheng, W. Liang, M. Hada, M. Ehara, K. Toyota, R. Fukuda, 
 J. Hasegawa, M. Ishida, T. Nakajima, Y. Honda, O. Kitao, H. Nakai, 
 T. Vreven, K. Throssell, J. A. Montgomery, Jr., J. E. Peralta, 
 F. Ogliaro, M. J. Bearpark, J. J. Heyd, E. N. Brothers, K. N. Kudin, 
 V. N. Staroverov, T. A. Keith, R. Kobayashi, J. Normand, 
 K. Raghavachari, A. P. Rendell, J. C. Burant, S. S. Iyengar, 
 J. Tomasi, M. Cossi, J. M. Millam, M. Klene, C. Adamo, R. Cammi, 
 J. W. Ochterski, R. L. Martin, K. Morokuma, O. Farkas, 
 J. B. Foresman, and D. J. Fox, Gaussian, Inc., Wallingford CT, 2016.
 
 ******************************************
 Gaussian 16:  AM64L-G16RevA.03 25-Dec-2016
                11-May-2022 
 ******************************************
 %chk=/scratch/rdu230/d3tales/high_throughput/runfiles//06IVBN/gaussian/gas_phase
 /opt/freq_opt_cation1.chk
 %mem=48GB
 %nprocshared=16
 Will use up to   16 processors via shared memory.
 %oldchk=/scratch/rdu230/d3tales/high_throughput/runfiles//06IVBN/gaussian/gas_ph
 ase/opt/opt_cation1.chk
 Copying data from "/scratch/rdu230/d3tales/high_throughput/runfiles//06IVBN/gaussian/gas_phase/opt/opt_cation1.chk" to current chk file "/scratch/rdu230/d3tales/high_throughput/runfiles//06IVBN/gaussian/gas_phase/opt/freq_opt_cation1.chk"
 IOpt=  2 FromEx=T IUOpen= 4 IOptOp= 5 NList=   0 IFRang= 0 IUIn= 4 IUOut= 2.
 ----------------------------------------------------------------------
 #P LC-wHPBE/Def2SVP Geom=AllCheck Guess=TCheck SCRF=Check freq iop(3/1
 07=0225700000, 3/108=0225700000)
 ----------------------------------------------------------------------
 1/10=4,29=7,30=1,38=1,40=1/1,3;
 2/12=2,40=1/2;
 3/5=43,7=101,11=2,14=-4,25=1,30=1,70=2,71=2,74=-71,107=225700000,108=225700000,116=-2,140=1/1,2,3;
 4/5=101/1;
 5/5=2,38=6,98=1/2;
 8/6=4,10=90,11=11/1;
 11/6=1,8=1,9=11,15=111,16=1/1,2,10;
 10/6=1/2;
 6/7=2,8=2,9=2,10=2,28=1/1;
 7/8=1,10=1,25=1/1,2,3,16;
 1/10=4,30=1/3;
 99//99;
 Leave Link    1 at Wed May 11 06:47:58 2022, MaxMem=  6442450944 cpu:               5.6 elap:               0.4
 (Enter /mnt/gpfs3_amd/share/apps/amd/gaussian/g16-A.03/g16/l101.exe)
 Structure from the checkpoint file:  "/scratch/rdu230/d3tales/high_throughput/runfiles//06IVBN/gaussian/gas_phase/opt/freq_opt_cation1.chk"
 ----------
 H13 C15 N2
 ----------
 Charge =  2 Multiplicity = 2
 Redundant internal coordinates found in file.  (old form).
 N,0,-0.2999045083,4.0302717449,-0.1880486058
 C,0,0.5327847884,3.0324586542,-0.145389417
 C,0,1.8395422869,2.5432650239,-0.1410351543
 C,0,0.8090302056,1.655291353,-0.0870153106
 N,0,0.3445854677,0.3800617819,-0.0258756239
 C,0,-1.0627037377,0.1484051718,-0.1422346932
 C,0,-1.8068216448,0.7914031283,-1.1520677983
 C,0,-3.1723456632,0.5393288842,-1.2404166172
 C,0,-3.7938571059,-0.3366765477,-0.3280779575
 C,0,-3.0477706085,-0.9683859791,0.6746858
 C,0,-1.6777692624,-0.7316861487,0.7778910625
 C,0,1.2215162548,-0.7029463675,0.1531973459
 C,0,0.8924975655,-1.950292335,-0.4637012739
 C,0,1.7360073424,-3.0369491486,-0.2952662436
 C,0,2.9060124279,-2.9020305779,0.4736064592
 C,0,3.2339156989,-1.6643454109,1.0826532695
 C,0,2.4079218028,-0.5666735345,0.9234441841
 H,0,-1.3119090166,3.8842834878,-0.1402957325
 H,0,0.0403573482,4.9959156747,-0.2464161714
 H,0,2.9156848629,2.7552500382,-0.1574137662
 H,0,-1.3118403217,1.4281582332,-1.8991844883
 H,0,-3.7634410437,1.0062671697,-2.0396006388
 H,0,-4.8736569318,-0.5236338514,-0.4054921018
 H,0,-3.5404310305,-1.6375792084,1.3922580539
 H,0,-1.0912788674,-1.1831334959,1.5900055547
 H,0,0.0100502506,-2.0210151458,-1.1134090079
 H,0,1.5054457856,-3.9916364018,-0.7860886499
 H,0,3.5796688123,-3.761573915,0.5990253036
 H,0,4.1382853353,-1.5848241208,1.7006484953
 H,0,2.6404235068,0.3730228433,1.4400307232
 Recover connectivity data from disk.
 ITRead=  0  0  0  0  0  0  0  0  0  0  0  0  0  0  0  0  0  0  0  0
 ITRead=  0  0  0  0  0  0  0  0  0  0
 MicOpt= -1 -1 -1 -1 -1 -1 -1 -1 -1 -1 -1 -1 -1 -1 -1 -1 -1 -1 -1 -1
 MicOpt= -1 -1 -1 -1 -1 -1 -1 -1 -1 -1
 NAtoms=     30 NQM=       30 NQMF=       0 NMMI=      0 NMMIF=      0
                NMic=       0 NMicF=      0.
                    Isotopes and Nuclear Properties:
 (Nuclear quadrupole moments (NQMom) in fm**2, nuclear magnetic moments (NMagM)
  in nuclear magnetons)

  Atom         1           2           3           4           5           6           7           8           9          10
 IAtWgt=          14          12          12          12          14          12          12          12          12          12
 AtmWgt=  14.0030740  12.0000000  12.0000000  12.0000000  14.0030740  12.0000000  12.0000000  12.0000000  12.0000000  12.0000000
 NucSpn=           2           0           0           0           2           0           0           0           0           0
 AtZEff=   4.5500000   3.6000000   3.6000000   3.6000000   4.5500000   3.6000000   3.6000000   3.6000000   3.6000000   3.6000000
 NQMom=    2.0440000   0.0000000   0.0000000   0.0000000   2.0440000   0.0000000   0.0000000   0.0000000   0.0000000   0.0000000
 NMagM=    0.4037610   0.0000000   0.0000000   0.0000000   0.4037610   0.0000000   0.0000000   0.0000000   0.0000000   0.0000000
 AtZNuc=   7.0000000   6.0000000   6.0000000   6.0000000   7.0000000   6.0000000   6.0000000   6.0000000   6.0000000   6.0000000

  Atom        11          12          13          14          15          16          17          18          19          20
 IAtWgt=          12          12          12          12          12          12          12           1           1           1
 AtmWgt=  12.0000000  12.0000000  12.0000000  12.0000000  12.0000000  12.0000000  12.0000000   1.0078250   1.0078250   1.0078250
 NucSpn=           0           0           0           0           0           0           0           1           1           1
 AtZEff=   3.6000000   3.6000000   3.6000000   3.6000000   3.6000000   3.6000000   3.6000000   1.0000000   1.0000000   1.0000000
 NQMom=    0.0000000   0.0000000   0.0000000   0.0000000   0.0000000   0.0000000   0.0000000   0.0000000   0.0000000   0.0000000
 NMagM=    0.0000000   0.0000000   0.0000000   0.0000000   0.0000000   0.0000000   0.0000000   2.7928460   2.7928460   2.7928460
 AtZNuc=   6.0000000   6.0000000   6.0000000   6.0000000   6.0000000   6.0000000   6.0000000   1.0000000   1.0000000   1.0000000

  Atom        21          22          23          24          25          26          27          28          29          30
 IAtWgt=           1           1           1           1           1           1           1           1           1           1
 AtmWgt=   1.0078250   1.0078250   1.0078250   1.0078250   1.0078250   1.0078250   1.0078250   1.0078250   1.0078250   1.0078250
 NucSpn=           1           1           1           1           1           1           1           1           1           1
 AtZEff=   1.0000000   1.0000000   1.0000000   1.0000000   1.0000000   1.0000000   1.0000000   1.0000000   1.0000000   1.0000000
 NQMom=    0.0000000   0.0000000   0.0000000   0.0000000   0.0000000   0.0000000   0.0000000   0.0000000   0.0000000   0.0000000
 NMagM=    2.7928460   2.7928460   2.7928460   2.7928460   2.7928460   2.7928460   2.7928460   2.7928460   2.7928460   2.7928460
 AtZNuc=   1.0000000   1.0000000   1.0000000   1.0000000   1.0000000   1.0000000   1.0000000   1.0000000   1.0000000   1.0000000
 Leave Link  101 at Wed May 11 06:47:58 2022, MaxMem=  6442450944 cpu:               2.0 elap:               0.1
 (Enter /mnt/gpfs3_amd/share/apps/amd/gaussian/g16-A.03/g16/l103.exe)

 GradGradGradGradGradGradGradGradGradGradGradGradGradGradGradGradGradGrad
 Berny optimization.
 Initialization pass.
                           ----------------------------
                           !    Initial Parameters    !
                           ! (Angstroms and Degrees)  !
 --------------------------                            --------------------------
 ! Name  Definition              Value          Derivative Info.                !
 --------------------------------------------------------------------------------
 ! R1    R(1,2)                  1.3003         calculate D2E/DX2 analytically  !
 ! R2    R(1,18)                 1.0236         calculate D2E/DX2 analytically  !
 ! R3    R(1,19)                 1.0255         calculate D2E/DX2 analytically  !
 ! R4    R(2,3)                  1.3953         calculate D2E/DX2 analytically  !
 ! R5    R(2,4)                  1.4058         calculate D2E/DX2 analytically  !
 ! R6    R(3,4)                  1.3614         calculate D2E/DX2 analytically  !
 ! R7    R(3,20)                 1.0969         calculate D2E/DX2 analytically  !
 ! R8    R(4,5)                  1.3585         calculate D2E/DX2 analytically  !
 ! R9    R(5,6)                  1.431          calculate D2E/DX2 analytically  !
 ! R10   R(5,12)                 1.405          calculate D2E/DX2 analytically  !
 ! R11   R(6,7)                  1.4096         calculate D2E/DX2 analytically  !
 ! R12   R(6,11)                 1.414          calculate D2E/DX2 analytically  !
 ! R13   R(7,8)                  1.3914         calculate D2E/DX2 analytically  !
 ! R14   R(7,21)                 1.0994         calculate D2E/DX2 analytically  !
 ! R15   R(8,9)                  1.4093         calculate D2E/DX2 analytically  !
 ! R16   R(8,22)                 1.0982         calculate D2E/DX2 analytically  !
 ! R17   R(9,10)                 1.4004         calculate D2E/DX2 analytically  !
 ! R18   R(9,23)                 1.0986         calculate D2E/DX2 analytically  !
 ! R19   R(10,11)                1.3941         calculate D2E/DX2 analytically  !
 ! R20   R(10,24)                1.0979         calculate D2E/DX2 analytically  !
 ! R21   R(11,25)                1.0988         calculate D2E/DX2 analytically  !
 ! R22   R(12,13)                1.4299         calculate D2E/DX2 analytically  !
 ! R23   R(12,17)                1.4211         calculate D2E/DX2 analytically  !
 ! R24   R(13,14)                1.3859         calculate D2E/DX2 analytically  !
 ! R25   R(13,26)                1.0981         calculate D2E/DX2 analytically  !
 ! R26   R(14,15)                1.4065         calculate D2E/DX2 analytically  !
 ! R27   R(14,27)                1.0979         calculate D2E/DX2 analytically  !
 ! R28   R(15,16)                1.4179         calculate D2E/DX2 analytically  !
 ! R29   R(15,28)                1.0993         calculate D2E/DX2 analytically  !
 ! R30   R(16,17)                1.3829         calculate D2E/DX2 analytically  !
 ! R31   R(16,29)                1.0982         calculate D2E/DX2 analytically  !
 ! R32   R(17,30)                1.0972         calculate D2E/DX2 analytically  !
 ! A1    A(2,1,18)             121.4765         calculate D2E/DX2 analytically  !
 ! A2    A(2,1,19)             120.7946         calculate D2E/DX2 analytically  !
 ! A3    A(18,1,19)            117.71           calculate D2E/DX2 analytically  !
 ! A4    A(1,2,3)              150.3264         calculate D2E/DX2 analytically  !
 ! A5    A(1,2,4)              151.5127         calculate D2E/DX2 analytically  !
 ! A6    A(2,3,20)             148.3166         calculate D2E/DX2 analytically  !
 ! A7    A(4,3,20)             150.371          calculate D2E/DX2 analytically  !
 ! A8    A(2,4,5)              148.6752         calculate D2E/DX2 analytically  !
 ! A9    A(3,4,5)              150.788          calculate D2E/DX2 analytically  !
 ! A10   A(4,5,6)              118.9805         calculate D2E/DX2 analytically  !
 ! A11   A(4,5,12)             121.0586         calculate D2E/DX2 analytically  !
 ! A12   A(6,5,12)             119.9606         calculate D2E/DX2 analytically  !
 ! A13   A(5,6,7)              120.2366         calculate D2E/DX2 analytically  !
 ! A14   A(5,6,11)             118.3998         calculate D2E/DX2 analytically  !
 ! A15   A(7,6,11)             121.3634         calculate D2E/DX2 analytically  !
 ! A16   A(6,7,8)              118.7461         calculate D2E/DX2 analytically  !
 ! A17   A(6,7,21)             120.8892         calculate D2E/DX2 analytically  !
 ! A18   A(8,7,21)             120.2411         calculate D2E/DX2 analytically  !
 ! A19   A(7,8,9)              120.2864         calculate D2E/DX2 analytically  !
 ! A20   A(7,8,22)             119.8276         calculate D2E/DX2 analytically  !
 ! A21   A(9,8,22)             119.8694         calculate D2E/DX2 analytically  !
 ! A22   A(8,9,10)             120.5966         calculate D2E/DX2 analytically  !
 ! A23   A(8,9,23)             119.58           calculate D2E/DX2 analytically  !
 ! A24   A(10,9,23)            119.8234         calculate D2E/DX2 analytically  !
 ! A25   A(9,10,11)            119.9969         calculate D2E/DX2 analytically  !
 ! A26   A(9,10,24)            120.2556         calculate D2E/DX2 analytically  !
 ! A27   A(11,10,24)           119.7394         calculate D2E/DX2 analytically  !
 ! A28   A(6,11,10)            119.009          calculate D2E/DX2 analytically  !
 ! A29   A(6,11,25)            120.2976         calculate D2E/DX2 analytically  !
 ! A30   A(10,11,25)           120.6298         calculate D2E/DX2 analytically  !
 ! A31   A(5,12,13)            118.2817         calculate D2E/DX2 analytically  !
 ! A32   A(5,12,17)            121.0815         calculate D2E/DX2 analytically  !
 ! A33   A(13,12,17)           120.6366         calculate D2E/DX2 analytically  !
 ! A34   A(12,13,14)           119.4386         calculate D2E/DX2 analytically  !
 ! A35   A(12,13,26)           119.7583         calculate D2E/DX2 analytically  !
 ! A36   A(14,13,26)           120.6983         calculate D2E/DX2 analytically  !
 ! A37   A(13,14,15)           119.8361         calculate D2E/DX2 analytically  !
 ! A38   A(13,14,27)           119.9758         calculate D2E/DX2 analytically  !
 ! A39   A(15,14,27)           120.1631         calculate D2E/DX2 analytically  !
 ! A40   A(14,15,16)           120.7258         calculate D2E/DX2 analytically  !
 ! A41   A(14,15,28)           119.8113         calculate D2E/DX2 analytically  !
 ! A42   A(16,15,28)           119.4611         calculate D2E/DX2 analytically  !
 ! A43   A(15,16,17)           120.3502         calculate D2E/DX2 analytically  !
 ! A44   A(15,16,29)           119.6938         calculate D2E/DX2 analytically  !
 ! A45   A(17,16,29)           119.9439         calculate D2E/DX2 analytically  !
 ! A46   A(12,17,16)           119.0084         calculate D2E/DX2 analytically  !
 ! A47   A(12,17,30)           120.9452         calculate D2E/DX2 analytically  !
 ! A48   A(16,17,30)           119.9338         calculate D2E/DX2 analytically  !
 ! D1    D(18,1,2,3)          -178.6494         calculate D2E/DX2 analytically  !
 ! D2    D(18,1,2,4)             2.766          calculate D2E/DX2 analytically  !
 ! D3    D(19,1,2,3)            -0.2622         calculate D2E/DX2 analytically  !
 ! D4    D(19,1,2,4)          -178.8468         calculate D2E/DX2 analytically  !
 ! D5    D(1,2,3,20)             1.5664         calculate D2E/DX2 analytically  !
 ! D6    D(1,2,4,5)             -0.608          calculate D2E/DX2 analytically  !
 ! D7    D(2,3,4,20)          -179.1801         calculate D2E/DX2 analytically  !
 ! D8    D(20,3,4,5)            -1.0508         calculate D2E/DX2 analytically  !
 ! D9    D(2,4,5,6)              6.4369         calculate D2E/DX2 analytically  !
 ! D10   D(2,4,5,12)          -173.3435         calculate D2E/DX2 analytically  !
 ! D11   D(3,4,5,6)           -173.1763         calculate D2E/DX2 analytically  !
 ! D12   D(3,4,5,12)             7.0433         calculate D2E/DX2 analytically  !
 ! D13   D(4,5,6,7)             46.112          calculate D2E/DX2 analytically  !
 ! D14   D(4,5,6,11)          -133.7135         calculate D2E/DX2 analytically  !
 ! D15   D(12,5,6,7)          -134.1052         calculate D2E/DX2 analytically  !
 ! D16   D(12,5,6,11)           46.0693         calculate D2E/DX2 analytically  !
 ! D17   D(4,5,12,13)         -147.1314         calculate D2E/DX2 analytically  !
 ! D18   D(4,5,12,17)           32.6996         calculate D2E/DX2 analytically  !
 ! D19   D(6,5,12,13)           33.0904         calculate D2E/DX2 analytically  !
 ! D20   D(6,5,12,17)         -147.0787         calculate D2E/DX2 analytically  !
 ! D21   D(5,6,7,8)            179.7313         calculate D2E/DX2 analytically  !
 ! D22   D(5,6,7,21)             3.7627         calculate D2E/DX2 analytically  !
 ! D23   D(11,6,7,8)            -0.4485         calculate D2E/DX2 analytically  !
 ! D24   D(11,6,7,21)         -176.4171         calculate D2E/DX2 analytically  !
 ! D25   D(5,6,11,10)         -179.888          calculate D2E/DX2 analytically  !
 ! D26   D(5,6,11,25)            2.9931         calculate D2E/DX2 analytically  !
 ! D27   D(7,6,11,10)            0.2885         calculate D2E/DX2 analytically  !
 ! D28   D(7,6,11,25)         -176.8303         calculate D2E/DX2 analytically  !
 ! D29   D(6,7,8,9)              0.4196         calculate D2E/DX2 analytically  !
 ! D30   D(6,7,8,22)          -178.0979         calculate D2E/DX2 analytically  !
 ! D31   D(21,7,8,9)           176.4152         calculate D2E/DX2 analytically  !
 ! D32   D(21,7,8,22)           -2.1023         calculate D2E/DX2 analytically  !
 ! D33   D(7,8,9,10)            -0.2413         calculate D2E/DX2 analytically  !
 ! D34   D(7,8,9,23)           179.708          calculate D2E/DX2 analytically  !
 ! D35   D(22,8,9,10)          178.2756         calculate D2E/DX2 analytically  !
 ! D36   D(22,8,9,23)           -1.7751         calculate D2E/DX2 analytically  !
 ! D37   D(8,9,10,11)            0.0765         calculate D2E/DX2 analytically  !
 ! D38   D(8,9,10,24)          179.0406         calculate D2E/DX2 analytically  !
 ! D39   D(23,9,10,11)        -179.8727         calculate D2E/DX2 analytically  !
 ! D40   D(23,9,10,24)          -0.9087         calculate D2E/DX2 analytically  !
 ! D41   D(9,10,11,6)           -0.0988         calculate D2E/DX2 analytically  !
 ! D42   D(9,10,11,25)         177.0102         calculate D2E/DX2 analytically  !
 ! D43   D(24,10,11,6)        -179.0682         calculate D2E/DX2 analytically  !
 ! D44   D(24,10,11,25)         -1.9592         calculate D2E/DX2 analytically  !
 ! D45   D(5,12,13,14)        -179.5673         calculate D2E/DX2 analytically  !
 ! D46   D(5,12,13,26)           4.1282         calculate D2E/DX2 analytically  !
 ! D47   D(17,12,13,14)          0.601          calculate D2E/DX2 analytically  !
 ! D48   D(17,12,13,26)       -175.7035         calculate D2E/DX2 analytically  !
 ! D49   D(5,12,17,16)         179.3731         calculate D2E/DX2 analytically  !
 ! D50   D(5,12,17,30)           3.2343         calculate D2E/DX2 analytically  !
 ! D51   D(13,12,17,16)         -0.7999         calculate D2E/DX2 analytically  !
 ! D52   D(13,12,17,30)       -176.9388         calculate D2E/DX2 analytically  !
 ! D53   D(12,13,14,15)         -0.2449         calculate D2E/DX2 analytically  !
 ! D54   D(12,13,14,27)       -178.428          calculate D2E/DX2 analytically  !
 ! D55   D(26,13,14,15)        176.024          calculate D2E/DX2 analytically  !
 ! D56   D(26,13,14,27)         -2.1591         calculate D2E/DX2 analytically  !
 ! D57   D(13,14,15,16)          0.0957         calculate D2E/DX2 analytically  !
 ! D58   D(13,14,15,28)       -179.4191         calculate D2E/DX2 analytically  !
 ! D59   D(27,14,15,16)        178.2754         calculate D2E/DX2 analytically  !
 ! D60   D(27,14,15,28)         -1.2394         calculate D2E/DX2 analytically  !
 ! D61   D(14,15,16,17)         -0.3023         calculate D2E/DX2 analytically  !
 ! D62   D(14,15,16,29)        178.4354         calculate D2E/DX2 analytically  !
 ! D63   D(28,15,16,17)        179.2142         calculate D2E/DX2 analytically  !
 ! D64   D(28,15,16,29)         -2.0481         calculate D2E/DX2 analytically  !
 ! D65   D(15,16,17,12)          0.6458         calculate D2E/DX2 analytically  !
 ! D66   D(15,16,17,30)        176.8245         calculate D2E/DX2 analytically  !
 ! D67   D(29,16,17,12)       -178.0887         calculate D2E/DX2 analytically  !
 ! D68   D(29,16,17,30)         -1.91           calculate D2E/DX2 analytically  !
 --------------------------------------------------------------------------------
 Trust Radius=3.00D-01 FncErr=1.00D-07 GrdErr=1.00D-07 EigMax=2.50D+02 EigMin=1.00D-04
 Number of steps in this run=      2 maximum allowed number of steps=      2.
 GradGradGradGradGradGradGradGradGradGradGradGradGradGradGradGradGradGrad

 Leave Link  103 at Wed May 11 06:47:58 2022, MaxMem=  6442450944 cpu:               0.1 elap:               0.0
 (Enter /mnt/gpfs3_amd/share/apps/amd/gaussian/g16-A.03/g16/l202.exe)
                          Input orientation:                          
 ---------------------------------------------------------------------
 Center     Atomic      Atomic             Coordinates (Angstroms)
 Number     Number       Type             X           Y           Z
 ---------------------------------------------------------------------
      1          7           0       -0.299905    4.030272   -0.188049
      2          6           0        0.532785    3.032459   -0.145389
      3          6           0        1.839542    2.543265   -0.141035
      4          6           0        0.809030    1.655291   -0.087015
      5          7           0        0.344585    0.380062   -0.025876
      6          6           0       -1.062704    0.148405   -0.142235
      7          6           0       -1.806822    0.791403   -1.152068
      8          6           0       -3.172346    0.539329   -1.240417
      9          6           0       -3.793857   -0.336677   -0.328078
     10          6           0       -3.047771   -0.968386    0.674686
     11          6           0       -1.677769   -0.731686    0.777891
     12          6           0        1.221516   -0.702946    0.153197
     13          6           0        0.892498   -1.950292   -0.463701
     14          6           0        1.736007   -3.036949   -0.295266
     15          6           0        2.906012   -2.902031    0.473606
     16          6           0        3.233916   -1.664345    1.082653
     17          6           0        2.407922   -0.566674    0.923444
     18          1           0       -1.311909    3.884283   -0.140296
     19          1           0        0.040357    4.995916   -0.246416
     20          1           0        2.915685    2.755250   -0.157414
     21          1           0       -1.311840    1.428158   -1.899184
     22          1           0       -3.763441    1.006267   -2.039601
     23          1           0       -4.873657   -0.523634   -0.405492
     24          1           0       -3.540431   -1.637579    1.392258
     25          1           0       -1.091279   -1.183133    1.590006
     26          1           0        0.010050   -2.021015   -1.113409
     27          1           0        1.505446   -3.991636   -0.786089
     28          1           0        3.579669   -3.761574    0.599025
     29          1           0        4.138285   -1.584824    1.700648
     30          1           0        2.640424    0.373023    1.440031
 ---------------------------------------------------------------------
                    Distance matrix (angstroms):
                    1          2          3          4          5
     1  N    0.000000
     2  C    1.300316   0.000000
     3  C    2.605884   1.395330   0.000000
     4  C    2.623066   1.405813   1.361386   0.000000
     5  N    3.710216   2.661750   2.632035   1.358550   0.000000
     6  C    3.956368   3.295961   3.762763   2.403569   1.430967
     7  C    3.700054   3.392564   4.169793   2.953527   2.462938
     8  C    4.641668   4.598127   5.508486   4.292675   3.724148
     9  C    5.594421   5.486736   6.329632   5.021217   4.210908
    10  C    5.769026   5.431359   6.073131   4.726392   3.717146
    11  C    5.050524   4.461814   4.892976   3.553857   2.443756
    12  C    4.983425   3.810086   3.317592   2.406062   1.404984
    13  C    6.104503   5.005849   4.603593   3.626168   2.433608
    14  C    7.355409   6.189339   5.583305   4.787460   3.699269
    15  C    7.666323   6.421334   5.582686   5.047852   4.193152
    16  C    6.821381   5.555553   4.598443   4.274129   3.708998
    17  C    5.449738   4.196701   3.335849   2.917981   2.460665
    18  H    1.023595   2.031878   3.424905   3.077276   3.877710
    19  H    1.025501   2.026784   3.043627   3.431623   4.631123
    20  H    3.459282   2.399000   1.096945   2.377574   3.502767
    21  H    3.274598   3.008691   3.777005   2.798864   2.711372
    22  H    4.956706   5.113809   6.112310   5.014112   4.617695
    23  H    6.457906   6.476346   7.385313   6.094430   5.309504
    24  H    6.717359   6.384724   6.983879   5.652350   4.601666
    25  H    5.564831   4.839462   5.047005   3.805290   2.667650
    26  H    6.129473   5.171838   5.012505   3.899626   2.657031
    27  H    8.244268   7.120005   6.575154   5.732494   4.586640
    28  H    8.739762   7.483083   6.582304   6.122869   5.292392
    29  H    7.402297   6.142214   5.071207   4.977753   4.608017
    30  H    4.967056   3.745437   2.801987   2.707413   2.723932
                    6          7          8          9         10
     6  C    0.000000
     7  C    1.409582   0.000000
     8  C    2.410273   1.391403   0.000000
     9  C    2.780115   2.428957   1.409264   0.000000
    10  C    2.419726   2.823799   2.440561   1.400442   0.000000
    11  C    1.414036   2.461950   2.814748   2.420130   1.394124
    12  C    2.455553   3.620446   4.774037   5.051708   4.309202
    13  C    2.886292   3.908589   4.829539   4.958233   4.217319
    14  C    4.242957   5.286022   6.146137   6.154019   5.301348
    15  C    5.043325   6.204440   7.192167   7.218864   6.263142
    16  C    4.821551   6.036034   7.161914   7.289887   6.333276
    17  C    3.700304   4.890418   6.086454   6.330977   5.476115
    18  H    3.744181   3.291585   3.982488   4.900187   5.217836
    19  H    4.972520   4.680833   5.583069   6.568440   6.779222
    20  H    4.756411   5.210384   6.568662   7.389661   7.079594
    21  H    2.187855   1.099385   2.164595   3.426868   3.921949
    22  H    3.410265   2.159222   1.098235   2.175714   3.432024
    23  H    3.878699   3.419382   2.172889   1.098596   2.167591
    24  H    3.418119   3.921601   3.435897   2.171665   1.097927
    25  H    2.185056   3.453949   3.912672   3.420448   2.170665
    26  H    2.607751   3.348465   4.086458   4.233610   3.695346
    27  H    4.914253   5.829453   6.528230   6.453768   5.657357
    28  H    6.114657   7.267063   8.214074   8.182807   7.192397
    29  H    5.783648   7.009190   8.161324   8.282058   7.285053
    30  H    4.033258   5.164495   6.403182   6.710428   5.894123
                   11         12         13         14         15
    11  C    0.000000
    12  C    2.965961   0.000000
    13  C    3.103679   1.429926   0.000000
    14  C    4.256733   2.431746   1.385894   0.000000
    15  C    5.080752   2.788577   2.416318   1.406513   0.000000
    16  C    5.008731   2.416180   2.820499   2.454879   1.417859
    17  C    4.091612   1.421059   2.476910   2.835311   2.429885
    18  H    4.720603   5.248529   6.245500   7.564210   8.013850
    19  H    6.066843   5.833683   7.001654   8.210026   8.432554
    20  H    5.842375   3.863393   5.131201   5.912716   5.692372
    21  H    3.459128   3.895096   4.281781   5.639070   6.493917
    22  H    3.912642   5.707852   5.736067   7.045157   8.128506
    23  H    3.414290   6.123351   5.940310   7.072239   8.182472
    24  H    2.160462   5.008488   4.815935   5.713736   6.633204
    25  H    1.098775   2.764782   2.956622   3.870973   4.492137
    26  H    2.843962   2.193000   1.098105   2.163425   3.417807
    27  H    4.817278   3.431961   2.155626   1.097949   2.176157
    28  H    6.070656   3.887782   3.410428   2.173459   1.099253
    29  H    5.950279   3.417580   3.918305   3.444312   2.181550
    30  H    4.506174   2.197032   3.475232   3.931556   3.424980
                   16         17         18         19         20
    16  C    0.000000
    17  C    1.382931   0.000000
    18  H    7.276497   5.897432   0.000000
    19  H    7.504953   6.157624   1.753742   0.000000
    20  H    4.601289   3.530050   4.375792   3.646370   0.000000
    21  H    6.254505   5.077718   3.020967   4.158001   4.760978
    22  H    8.114410   7.024208   4.230880   5.796696   7.156276
    23  H    8.321570   7.401980   5.673281   7.391770   8.454967
    24  H    6.781471   6.062139   6.148658   7.714308   7.961147
    25  H    4.381356   3.615070   5.359229   6.544746   5.883885
    26  H    3.917041   3.466074   6.129199   7.070355   5.671803
    27  H    3.449071   3.932853   8.389556   9.122161   6.921306
    28  H    2.179864   3.418425   9.106770   9.483413   6.594094
    29  H    1.098238   2.152867   7.937558   7.993135   4.876822
    30  H    2.151934   1.097246   5.517909   5.565571   2.881424
                   21         22         23         24         25
    21  H    0.000000
    22  H    2.491597   0.000000
    23  H    4.327487   2.498697   0.000000
    24  H    5.019856   4.337892   2.500054   0.000000
    25  H    4.363707   5.010785   4.327047   2.498794   0.000000
    26  H    3.776458   4.925597   5.156927   4.362489   3.037009
    27  H    6.208885   7.369634   7.270822   5.978934   4.502943
    28  H    7.556536   9.144174   9.107800   7.472375   5.426615
    29  H    7.193103   9.118141   9.315420   7.685088   5.246136
    30  H    5.280536   7.315621   7.789182   6.499828   4.045951
                   26         27         28         29         30
    26  H    0.000000
    27  H    2.495335   0.000000
    28  H    4.324830   2.504770   0.000000
    29  H    5.015128   4.348385   2.502772   0.000000
    30  H    4.378394   5.029317   4.322541   2.478846   0.000000
 Stoichiometry    C15H13N2(2+,2)
 Framework group  C1[X(C15H13N2)]
 Deg. of freedom    84
 Full point group                 C1      NOp   1
 RotChk:  IX=0 Diff= 1.02D-15
 Largest Abelian subgroup         C1      NOp   1
 Largest concise Abelian subgroup C1      NOp   1
                         Standard orientation:                         
 ---------------------------------------------------------------------
 Center     Atomic      Atomic             Coordinates (Angstroms)
 Number     Number       Type             X           Y           Z
 ---------------------------------------------------------------------
      1          7           0       -2.574002    3.056798    0.184555
      2          6           0       -1.326958    2.719512    0.036430
      3          6           0        0.007265    3.070413   -0.172528
      4          6           0       -0.310700    1.752185   -0.051933
      5          7           0        0.049956    0.442556   -0.030581
      6          6           0       -0.972295   -0.557288    0.024026
      7          6           0       -2.095518   -0.471064   -0.823239
      8          6           0       -3.068088   -1.463270   -0.748155
      9          6           0       -2.929794   -2.526270    0.166683
     10          6           0       -1.812505   -2.602211    1.007596
     11          6           0       -0.825265   -1.619832    0.945373
     12          6           0        1.402348    0.062636   -0.056606
     13          6           0        1.751495   -1.154509   -0.720943
     14          6           0        3.077336   -1.556752   -0.753303
     15          6           0        4.064120   -0.764585   -0.139293
     16          6           0        3.718359    0.443921    0.516670
     17          6           0        2.401815    0.865356    0.556678
     18          1           0       -3.300503    2.356233    0.355291
     19          1           0       -2.858199    4.041775    0.157988
     20          1           0        0.752823    3.862221   -0.315605
     21          1           0       -2.174150    0.325442   -1.576924
     22          1           0       -3.934907   -1.430605   -1.421712
     23          1           0       -3.707077   -3.300833    0.219576
     24          1           0       -1.718101   -3.424280    1.729215
     25          1           0        0.031017   -1.642314    1.633546
     26          1           0        0.978758   -1.727429   -1.250542
     27          1           0        3.358839   -2.476329   -1.283045
     28          1           0        5.116849   -1.079150   -0.173469
     29          1           0        4.498875    1.036258    1.012711
     30          1           0        2.134402    1.774092    1.110425
 ---------------------------------------------------------------------
 Rotational constants (GHZ):           0.6224659           0.4055685           0.2649592
 Leave Link  202 at Wed May 11 06:47:58 2022, MaxMem=  6442450944 cpu:               0.1 elap:               0.0
 (Enter /mnt/gpfs3_amd/share/apps/amd/gaussian/g16-A.03/g16/l301.exe)
 Standard basis: def2SVP (5D, 7F)
 Ernie: Thresh=  0.10000D-02 Tol=  0.10000D-05 Strict=F.
 There are   320 symmetry adapted cartesian basis functions of A   symmetry.
 There are   303 symmetry adapted basis functions of A   symmetry.
   303 basis functions,   516 primitive gaussians,   320 cartesian basis functions
    58 alpha electrons       57 beta electrons
       nuclear repulsion energy      1083.6295140777 Hartrees.
 IExCor=33909 DFT=T Ex+Corr=LC-wHPBE ExCW=0 ScaHFX=  1.000000
 ScaDFX=  1.000000  1.000000  1.000000  1.000000 ScalE2=  1.000000  1.000000
 IRadAn=      5 IRanWt=     -1 IRanGd=            0 ICorTp=0 IEmpDi=  4
 HFx  wShort=  0.000000 wLong=  0.225700 cFull=  0.000000 cShort=  0.000000 cLong=  1.000000
 DFx  wShort=  0.000000 wLong=  0.225700 cFull=  0.000000 cShort=  1.000000 cLong=  0.000000
 NAtoms=   30 NActive=   30 NUniq=   30 SFac= 1.00D+00 NAtFMM=   60 NAOKFM=F Big=F
 Integral buffers will be    131072 words long.
 Raffenetti 2 integral format.
 Two-electron integral symmetry is turned on.
 Leave Link  301 at Wed May 11 06:47:59 2022, MaxMem=  6442450944 cpu:               0.4 elap:               0.0
 (Enter /mnt/gpfs3_amd/share/apps/amd/gaussian/g16-A.03/g16/l302.exe)
 NPDir=0 NMtPBC=     1 NCelOv=     1 NCel=       1 NClECP=     1 NCelD=      1
         NCelK=      1 NCelE2=     1 NClLst=     1 CellRange=     0.0.
 One-electron integrals computed using PRISM.
 One-electron integral symmetry used in STVInt
   1 Symmetry operations used in ECPInt.
 ECPInt:  NShTT=   10011 NPrTT=   36575 LenC2=    9406 LenP2D=   24568.
 LDataN:  DoStor=T MaxTD1= 4 Len=   56
 NBasis=   303 RedAO= T EigKep=  2.88D-04  NBF=   303
 NBsUse=   303 1.00D-06 EigRej= -1.00D+00 NBFU=   303
 Precomputing XC quadrature grid using
 IXCGrd= 4 IRadAn=           5 IRanWt=          -1 IRanGd=           0 AccXCQ= 0.00D+00.
 Generated NRdTot=       0 NPtTot=           0 NUsed=           0 NTot=          32
 NSgBfM=   319   319   319   319   319 MxSgAt=    30 MxSgA2=    30.
 Leave Link  302 at Wed May 11 06:47:59 2022, MaxMem=  6442450944 cpu:               7.3 elap:               0.5
 (Enter /mnt/gpfs3_amd/share/apps/amd/gaussian/g16-A.03/g16/l303.exe)
 DipDrv:  MaxL=1.
 Leave Link  303 at Wed May 11 06:47:59 2022, MaxMem=  6442450944 cpu:               0.4 elap:               0.0
 (Enter /mnt/gpfs3_amd/share/apps/amd/gaussian/g16-A.03/g16/l401.exe)
 Initial guess from the checkpoint file:  "/scratch/rdu230/d3tales/high_throughput/runfiles//06IVBN/gaussian/gas_phase/opt/freq_opt_cation1.chk"
 B after Tr=    -0.000000    0.000000    0.000000
         Rot=    1.000000    0.000000    0.000000    0.000000 Ang=   0.00 deg.
 Guess basis will be translated and rotated to current coordinates.
 JPrj=2 DoOrth=T DoCkMO=T.
 Initial guess <Sx>= 0.0000 <Sy>= 0.0000 <Sz>= 0.5000 <S**2>= 0.7669 S= 0.5084
 Leave Link  401 at Wed May 11 06:48:00 2022, MaxMem=  6442450944 cpu:              11.5 elap:               0.7
 (Enter /mnt/gpfs3_amd/share/apps/amd/gaussian/g16-A.03/g16/l502.exe)
 Integral symmetry usage will be decided dynamically.
 UHF open shell SCF:
 Using DIIS extrapolation, IDIIS=  1040.
 NGot=  6442450944 LenX=  6442237618 LenY=  6442134777
 Requested convergence on RMS density matrix=1.00D-08 within 128 cycles.
 Requested convergence on MAX density matrix=1.00D-06.
 Requested convergence on             energy=1.00D-06.
 No special actions if energy rises.
 Fock matrices will be formed incrementally for  20 cycles.

 Cycle   1  Pass 1  IDiag  1:
 FoFJK:  IHMeth= 1 ICntrl=       0 DoSepK=T KAlg= 0 I1Cent=           0 FoldK=F
 IRaf=         1 NMat=       1 IRICut=       1 DoRegI=T DoRafI=F ISym2E= 0 IDoP0=0 IntGTp=1.
 FoFCou: FMM=F IPFlag=           0 FMFlag=      100000 FMFlg1=           0
         NFxFlg=           0 DoJE=T BraDBF=F KetDBF=F FulRan=T
         wScrn=  0.000000 ICntrl=       500 IOpCl=  0 I1Cent=           0 NGrid=           0
         NMat0=    1 NMatS0=      1 NMatT0=    0 NMatD0=    1 NMtDS0=    0 NMtDT0=    0
 Symmetry not used in FoFCou.
 E= -687.128779856604    
 DIIS: error= 3.48D-08 at cycle   1 NSaved=   1.
 NSaved= 1 IEnMin= 1 EnMin= -687.128779856604     IErMin= 1 ErrMin= 3.48D-08
 ErrMax= 3.48D-08  0.00D+00 EMaxC= 1.00D-01 BMatC= 4.77D-13 BMatP= 4.77D-13
 IDIUse=1 WtCom= 1.00D+00 WtEn= 0.00D+00
 Coeff-Com:  0.100D+01
 Coeff:      0.100D+01
 Gap=     0.306 Goal=   None    Shift=    0.000
 Gap=     0.174 Goal=   None    Shift=    0.000
 RMSDP=3.49D-09 MaxDP=1.29D-07              OVMax= 9.65D-07

 SCF Done:  E(ULC-wHPBE) =  -687.128779857     A.U. after    1 cycles
            NFock=  1  Conv=0.35D-08     -V/T= 2.0115
 <Sx>= 0.0000 <Sy>= 0.0000 <Sz>= 0.5000 <S**2>= 0.7669 S= 0.5084
 <L.S>= 0.000000000000E+00
 KE= 6.792870986754D+02 PE=-3.724521342582D+03 EE= 1.274475949973D+03
 Annihilation of the first spin contaminant:
 S**2 before annihilation     0.7669,   after     0.7502
 Leave Link  502 at Wed May 11 06:48:11 2022, MaxMem=  6442450944 cpu:             169.4 elap:              10.8
 (Enter /mnt/gpfs3_amd/share/apps/amd/gaussian/g16-A.03/g16/l801.exe)
 DoSCS=F DFT=T ScalE2(SS,OS)=  1.000000  1.000000
 Range of M.O.s used for correlation:     1   303
 NBasis=   303 NAE=    58 NBE=    57 NFC=     0 NFV=     0
 NROrb=    303 NOA=    58 NOB=    57 NVA=   245 NVB=   246

 **** Warning!!: The largest alpha MO coefficient is  0.14267034D+02


 **** Warning!!: The largest beta MO coefficient is  0.14264399D+02

 Leave Link  801 at Wed May 11 06:48:11 2022, MaxMem=  6442450944 cpu:               0.2 elap:               0.0
 (Enter /mnt/gpfs3_amd/share/apps/amd/gaussian/g16-A.03/g16/l1101.exe)
 Using compressed storage, NAtomX=    30.
 Will process     31 centers per pass.
   1 Symmetry operations used in ECPInt.
 ECPInt:  NShTT=   10011 NPrTT=   36575 LenC2=    9406 LenP2D=   24568.
 LDataN:  DoStor=T MaxTD1= 5 Len=  102
 Leave Link 1101 at Wed May 11 06:48:11 2022, MaxMem=  6442450944 cpu:              12.7 elap:               0.9
 (Enter /mnt/gpfs3_amd/share/apps/amd/gaussian/g16-A.03/g16/l1102.exe)
 Symmetrizing basis deriv contribution to polar:
 IMax=3 JMax=2 DiffMx= 0.00D+00
 Leave Link 1102 at Wed May 11 06:48:12 2022, MaxMem=  6442450944 cpu:               0.6 elap:               0.1
 (Enter /mnt/gpfs3_amd/share/apps/amd/gaussian/g16-A.03/g16/l1110.exe)
 Forming Gx(P) for the SCF density, NAtomX=    30.
 Integral derivatives from FoFJK, PRISM(SPDF).
 Do as many integral derivatives as possible in FoFJK.
 G2DrvN: MDV=    6442448708.
 G2DrvN: will do    31 centers at a time, making    1 passes.
 Calling FoFCou, ICntrl=  3107 FMM=F I1Cent=   0 AccDes= 0.00D+00.
 FoFJK:  IHMeth= 1 ICntrl=    3107 DoSepK=T KAlg= 0 I1Cent=           0 FoldK=F
 IRaf=         1 NMat=       1 IRICut=       1 DoRegI=T DoRafI=F ISym2E= 0 IDoP0=0 IntGTp=1.
 FoFCou: FMM=F IPFlag=           0 FMFlag=      100000 FMFlg1=           0
         NFxFlg=           0 DoJE=F BraDBF=F KetDBF=F FulRan=T
         wScrn=  0.000000 ICntrl=      3507 IOpCl=  0 I1Cent=           0 NGrid=           0
         NMat0=    1 NMatS0=      1 NMatT0=    0 NMatD0=    1 NMtDS0=    0 NMtDT0=    0
 Symmetry not used in FoFCou.
 End of G2Drv F.D. properties file   721 does not exist.
 End of G2Drv F.D. properties file   722 does not exist.
 End of G2Drv F.D. properties file   788 does not exist.
 Leave Link 1110 at Wed May 11 06:54:28 2022, MaxMem=  6442450944 cpu:            5963.6 elap:             376.0
 (Enter /mnt/gpfs3_amd/share/apps/amd/gaussian/g16-A.03/g16/l1002.exe)
 Minotr:  UHF open shell wavefunction.
          IDoAtm=111111111111111111111111111111
          Direct CPHF calculation.
          Differentiating once with respect to electric field.
                with respect to dipole field.
          Differentiating once with respect to nuclear coordinates.
          Requested convergence is 1.0D-08 RMS, and 1.0D-07 maximum.
          Secondary convergence is 1.0D-12 RMS, and 1.0D-12 maximum.
          NewPWx=T KeepS1=F KeepF1=F KeepIn=T MapXYZ=F SortEE=F KeepMc=T.
         9039 words used for storage of precomputed grid.
 Keep R1 and R2 ints in memory in canonical form, NReq=4260851501.
 FoFCou: FMM=F IPFlag=           0 FMFlag=           0 FMFlg1=           0
         NFxFlg=           0 DoJE=F BraDBF=F KetDBF=F FulRan=T
         wScrn=  0.000000 ICntrl=       600 IOpCl=  0 I1Cent=           0 NGrid=           0
         NMat0=    1 NMatS0=  46056 NMatT0=    0 NMatD0=    1 NMtDS0=    0 NMtDT0=    0
 Symmetry not used in FoFCou.
 Two-electron integral symmetry not used.
          MDV=    6442450944 using IRadAn=       1.
          Solving linear equations simultaneously, MaxMat=       0.
          There are    93 degrees of freedom in the 1st order CPHF.  IDoFFX=6 NUNeed=     3.
     90 vectors produced by pass  0 Test12= 3.04D-14 1.08D-09 XBig12= 5.80D+02 1.89D+01.
 AX will form    90 AO Fock derivatives at one time.
     90 vectors produced by pass  1 Test12= 3.04D-14 1.08D-09 XBig12= 7.59D+01 2.40D+00.
     90 vectors produced by pass  2 Test12= 3.04D-14 1.08D-09 XBig12= 4.09D+00 4.89D-01.
     90 vectors produced by pass  3 Test12= 3.04D-14 1.08D-09 XBig12= 6.91D-02 3.24D-02.
     90 vectors produced by pass  4 Test12= 3.04D-14 1.08D-09 XBig12= 7.41D-04 2.97D-03.
     90 vectors produced by pass  5 Test12= 3.04D-14 1.08D-09 XBig12= 7.49D-06 3.32D-04.
     90 vectors produced by pass  6 Test12= 3.04D-14 1.08D-09 XBig12= 7.50D-08 2.12D-05.
     56 vectors produced by pass  7 Test12= 3.04D-14 1.08D-09 XBig12= 5.82D-10 1.82D-06.
     23 vectors produced by pass  8 Test12= 3.04D-14 1.08D-09 XBig12= 5.29D-12 1.93D-07.
      3 vectors produced by pass  9 Test12= 3.04D-14 1.08D-09 XBig12= 4.39D-14 1.63D-08.
 InvSVY:  IOpt=1 It=  1 EMax= 4.77D-15
 Solved reduced A of dimension   712 with    93 vectors.
 FullF1:  Do perturbations      1 to       3.
 Isotropic polarizability for W=    0.000000      246.45 Bohr**3.
 End of Minotr F.D. properties file   721 does not exist.
 End of Minotr F.D. properties file   722 does not exist.
 End of Minotr F.D. properties file   788 does not exist.
 Leave Link 1002 at Wed May 11 07:04:06 2022, MaxMem=  6442450944 cpu:            9194.0 elap:             578.9
 (Enter /mnt/gpfs3_amd/share/apps/amd/gaussian/g16-A.03/g16/l601.exe)
 Copying SCF densities to generalized density rwf, IOpCl= 1 IROHF=0.

 **********************************************************************

            Population analysis using the SCF density.

 **********************************************************************

 Orbital symmetries:
 Alpha Orbitals:
       Occupied  (A) (A) (A) (A) (A) (A) (A) (A) (A) (A) (A) (A)
                 (A) (A) (A) (A) (A) (A) (A) (A) (A) (A) (A) (A)
                 (A) (A) (A) (A) (A) (A) (A) (A) (A) (A) (A) (A)
                 (A) (A) (A) (A) (A) (A) (A) (A) (A) (A) (A) (A)
                 (A) (A) (A) (A) (A) (A) (A) (A) (A) (A)
       Virtual   (A) (A) (A) (A) (A) (A) (A) (A) (A) (A) (A) (A)
                 (A) (A) (A) (A) (A) (A) (A) (A) (A) (A) (A) (A)
                 (A) (A) (A) (A) (A) (A) (A) (A) (A) (A) (A) (A)
                 (A) (A) (A) (A) (A) (A) (A) (A) (A) (A) (A) (A)
                 (A) (A) (A) (A) (A) (A) (A) (A) (A) (A) (A) (A)
                 (A) (A) (A) (A) (A) (A) (A) (A) (A) (A) (A) (A)
                 (A) (A) (A) (A) (A) (A) (A) (A) (A) (A) (A) (A)
                 (A) (A) (A) (A) (A) (A) (A) (A) (A) (A) (A) (A)
                 (A) (A) (A) (A) (A) (A) (A) (A) (A) (A) (A) (A)
                 (A) (A) (A) (A) (A) (A) (A) (A) (A) (A) (A) (A)
                 (A) (A) (A) (A) (A) (A) (A) (A) (A) (A) (A) (A)
                 (A) (A) (A) (A) (A) (A) (A) (A) (A) (A) (A) (A)
                 (A) (A) (A) (A) (A) (A) (A) (A) (A) (A) (A) (A)
                 (A) (A) (A) (A) (A) (A) (A) (A) (A) (A) (A) (A)
                 (A) (A) (A) (A) (A) (A) (A) (A) (A) (A) (A) (A)
                 (A) (A) (A) (A) (A) (A) (A) (A) (A) (A) (A) (A)
                 (A) (A) (A) (A) (A) (A) (A) (A) (A) (A) (A) (A)
                 (A) (A) (A) (A) (A) (A) (A) (A) (A) (A) (A) (A)
                 (A) (A) (A) (A) (A) (A) (A) (A) (A) (A) (A) (A)
                 (A) (A) (A) (A) (A) (A) (A) (A) (A) (A) (A) (A)
                 (A) (A) (A) (A) (A)
 Beta  Orbitals:
       Occupied  (A) (A) (A) (A) (A) (A) (A) (A) (A) (A) (A) (A)
                 (A) (A) (A) (A) (A) (A) (A) (A) (A) (A) (A) (A)
                 (A) (A) (A) (A) (A) (A) (A) (A) (A) (A) (A) (A)
                 (A) (A) (A) (A) (A) (A) (A) (A) (A) (A) (A) (A)
                 (A) (A) (A) (A) (A) (A) (A) (A) (A)
       Virtual   (A) (A) (A) (A) (A) (A) (A) (A) (A) (A) (A) (A)
                 (A) (A) (A) (A) (A) (A) (A) (A) (A) (A) (A) (A)
                 (A) (A) (A) (A) (A) (A) (A) (A) (A) (A) (A) (A)
                 (A) (A) (A) (A) (A) (A) (A) (A) (A) (A) (A) (A)
                 (A) (A) (A) (A) (A) (A) (A) (A) (A) (A) (A) (A)
                 (A) (A) (A) (A) (A) (A) (A) (A) (A) (A) (A) (A)
                 (A) (A) (A) (A) (A) (A) (A) (A) (A) (A) (A) (A)
                 (A) (A) (A) (A) (A) (A) (A) (A) (A) (A) (A) (A)
                 (A) (A) (A) (A) (A) (A) (A) (A) (A) (A) (A) (A)
                 (A) (A) (A) (A) (A) (A) (A) (A) (A) (A) (A) (A)
                 (A) (A) (A) (A) (A) (A) (A) (A) (A) (A) (A) (A)
                 (A) (A) (A) (A) (A) (A) (A) (A) (A) (A) (A) (A)
                 (A) (A) (A) (A) (A) (A) (A) (A) (A) (A) (A) (A)
                 (A) (A) (A) (A) (A) (A) (A) (A) (A) (A) (A) (A)
                 (A) (A) (A) (A) (A) (A) (A) (A) (A) (A) (A) (A)
                 (A) (A) (A) (A) (A) (A) (A) (A) (A) (A) (A) (A)
                 (A) (A) (A) (A) (A) (A) (A) (A) (A) (A) (A) (A)
                 (A) (A) (A) (A) (A) (A) (A) (A) (A) (A) (A) (A)
                 (A) (A) (A) (A) (A) (A) (A) (A) (A) (A) (A) (A)
                 (A) (A) (A) (A) (A) (A) (A) (A) (A) (A) (A) (A)
                 (A) (A) (A) (A) (A) (A)
 The electronic state is 2-A.
 Alpha  occ. eigenvalues --  -14.53001 -14.48289 -10.44257 -10.44044 -10.39980
 Alpha  occ. eigenvalues --  -10.38842 -10.36455 -10.32783 -10.32425 -10.32095
 Alpha  occ. eigenvalues --  -10.31217 -10.31110 -10.31066 -10.30344 -10.29546
 Alpha  occ. eigenvalues --  -10.29519 -10.28879  -1.36767  -1.32291  -1.26661
 Alpha  occ. eigenvalues --   -1.19512  -1.17480  -1.10187  -1.09493  -1.07551
 Alpha  occ. eigenvalues --   -1.06809  -1.00731  -0.98878  -0.97188  -0.95240
 Alpha  occ. eigenvalues --   -0.94200  -0.93399  -0.91138  -0.90087  -0.88680
 Alpha  occ. eigenvalues --   -0.85378  -0.83839  -0.82241  -0.81006  -0.79992
 Alpha  occ. eigenvalues --   -0.79120  -0.77554  -0.77159  -0.76409  -0.75881
 Alpha  occ. eigenvalues --   -0.75301  -0.74383  -0.73496  -0.71326  -0.70137
 Alpha  occ. eigenvalues --   -0.68948  -0.68297  -0.67579  -0.66322  -0.62116
 Alpha  occ. eigenvalues --   -0.61579  -0.59989  -0.58172
 Alpha virt. eigenvalues --   -0.27602  -0.24668  -0.23732  -0.23046  -0.21186
 Alpha virt. eigenvalues --   -0.19538  -0.15480  -0.13325  -0.11864  -0.10820
 Alpha virt. eigenvalues --   -0.10014  -0.08808  -0.07724  -0.07531  -0.06792
 Alpha virt. eigenvalues --   -0.05970  -0.05311  -0.04335  -0.04139  -0.03297
 Alpha virt. eigenvalues --   -0.01375  -0.01079  -0.00034   0.00167   0.00853
 Alpha virt. eigenvalues --    0.03945   0.04759   0.06110   0.07073   0.08506
 Alpha virt. eigenvalues --    0.09050   0.09427   0.11067   0.12317   0.13000
 Alpha virt. eigenvalues --    0.14825   0.15604   0.16204   0.19012   0.19624
 Alpha virt. eigenvalues --    0.20407   0.21157   0.21631   0.22656   0.23219
 Alpha virt. eigenvalues --    0.23702   0.24146   0.25163   0.27199   0.27768
 Alpha virt. eigenvalues --    0.28246   0.29050   0.29419   0.29770   0.30642
 Alpha virt. eigenvalues --    0.31066   0.31426   0.32307   0.34316   0.34776
 Alpha virt. eigenvalues --    0.35297   0.36001   0.37038   0.38211   0.38383
 Alpha virt. eigenvalues --    0.39286   0.40479   0.42014   0.42250   0.43244
 Alpha virt. eigenvalues --    0.43929   0.44785   0.45027   0.45998   0.47067
 Alpha virt. eigenvalues --    0.47483   0.48025   0.48244   0.49092   0.50180
 Alpha virt. eigenvalues --    0.50239   0.51119   0.51926   0.52816   0.53748
 Alpha virt. eigenvalues --    0.53852   0.54214   0.55102   0.55555   0.56642
 Alpha virt. eigenvalues --    0.57151   0.57579   0.58509   0.60757   0.61255
 Alpha virt. eigenvalues --    0.62102   0.62667   0.65665   0.67442   0.68568
 Alpha virt. eigenvalues --    0.68913   0.72633   0.73433   0.74099   0.76521
 Alpha virt. eigenvalues --    0.81522   0.84610   0.85801   0.87116   0.87463
 Alpha virt. eigenvalues --    0.89101   0.90609   0.94161   0.94776   0.97300
 Alpha virt. eigenvalues --    0.98982   0.99419   1.00907   1.01212   1.02561
 Alpha virt. eigenvalues --    1.03940   1.04753   1.05590   1.06219   1.07682
 Alpha virt. eigenvalues --    1.08680   1.09050   1.09600   1.10063   1.11412
 Alpha virt. eigenvalues --    1.13409   1.14658   1.24892   1.28482   1.31491
 Alpha virt. eigenvalues --    1.33393   1.37945   1.39197   1.39834   1.44021
 Alpha virt. eigenvalues --    1.44505   1.44953   1.45514   1.46591   1.47039
 Alpha virt. eigenvalues --    1.48858   1.49253   1.50571   1.51522   1.51759
 Alpha virt. eigenvalues --    1.52776   1.53051   1.53347   1.54247   1.54524
 Alpha virt. eigenvalues --    1.55421   1.56373   1.57966   1.58185   1.58731
 Alpha virt. eigenvalues --    1.60661   1.61234   1.62529   1.62903   1.63856
 Alpha virt. eigenvalues --    1.64072   1.70026   1.72593   1.73502   1.74771
 Alpha virt. eigenvalues --    1.75118   1.75544   1.75869   1.76963   1.77171
 Alpha virt. eigenvalues --    1.77847   1.78674   1.79763   1.80879   1.81316
 Alpha virt. eigenvalues --    1.83714   1.86806   1.88362   1.91050   1.91795
 Alpha virt. eigenvalues --    1.92331   1.92924   1.94251   1.94809   1.95967
 Alpha virt. eigenvalues --    1.97496   1.98506   2.01660   2.02466   2.03664
 Alpha virt. eigenvalues --    2.05170   2.06387   2.06685   2.07635   2.08729
 Alpha virt. eigenvalues --    2.08861   2.11080   2.12559   2.12757   2.15866
 Alpha virt. eigenvalues --    2.19173   2.21781   2.27771   2.29363   2.31263
 Alpha virt. eigenvalues --    2.33192   2.34388   2.35557   2.36610   2.37525
 Alpha virt. eigenvalues --    2.39057   2.40902   2.44355   2.49064   2.49738
 Alpha virt. eigenvalues --    2.49933   2.51303   2.53103   2.54433   2.56417
 Alpha virt. eigenvalues --    2.57563   2.60834   2.62693   2.62948   2.63953
 Alpha virt. eigenvalues --    2.64900   2.72595   2.75789   2.83472   2.86079
 Alpha virt. eigenvalues --    2.87093   2.88612   2.92886   2.96842   3.02786
 Alpha virt. eigenvalues --    3.11787   3.18842   3.31419   3.36586   3.40371
  Beta  occ. eigenvalues --  -14.52614 -14.48258 -10.44251 -10.44093 -10.39824
  Beta  occ. eigenvalues --  -10.38638 -10.36387 -10.32577 -10.32355 -10.31723
  Beta  occ. eigenvalues --  -10.31113 -10.31068 -10.31025 -10.30450 -10.29538
  Beta  occ. eigenvalues --  -10.29350 -10.28949  -1.36279  -1.32074  -1.26544
  Beta  occ. eigenvalues --   -1.19064  -1.17163  -1.09641  -1.09214  -1.07293
  Beta  occ. eigenvalues --   -1.06609  -1.00261  -0.98700  -0.96975  -0.95065
  Beta  occ. eigenvalues --   -0.93900  -0.93179  -0.91059  -0.89863  -0.88514
  Beta  occ. eigenvalues --   -0.84717  -0.83596  -0.82059  -0.80667  -0.79733
  Beta  occ. eigenvalues --   -0.78956  -0.77349  -0.77016  -0.76068  -0.75752
  Beta  occ. eigenvalues --   -0.75017  -0.74118  -0.72556  -0.70132  -0.69879
  Beta  occ. eigenvalues --   -0.68765  -0.68179  -0.67423  -0.64882  -0.61361
  Beta  occ. eigenvalues --   -0.59760  -0.58496
  Beta virt. eigenvalues --   -0.41087  -0.26231  -0.23325  -0.23218  -0.22389
  Beta virt. eigenvalues --   -0.20522  -0.18139  -0.15407  -0.13238  -0.11700
  Beta virt. eigenvalues --   -0.10676  -0.09891  -0.08661  -0.07623  -0.06751
  Beta virt. eigenvalues --   -0.06676  -0.05580  -0.05167  -0.04238  -0.03941
  Beta virt. eigenvalues --   -0.03031  -0.01325  -0.01014   0.00163   0.00471
  Beta virt. eigenvalues --    0.01035   0.04167   0.05103   0.06409   0.07263
  Beta virt. eigenvalues --    0.08716   0.09171   0.09576   0.11305   0.12552
  Beta virt. eigenvalues --    0.13272   0.15083   0.15872   0.16422   0.19273
  Beta virt. eigenvalues --    0.19822   0.20672   0.21320   0.21838   0.22875
  Beta virt. eigenvalues --    0.23378   0.23975   0.24397   0.25466   0.27508
  Beta virt. eigenvalues --    0.28004   0.28655   0.29251   0.29788   0.29994
  Beta virt. eigenvalues --    0.30922   0.31348   0.31673   0.32639   0.34654
  Beta virt. eigenvalues --    0.35066   0.35553   0.36161   0.37208   0.38528
  Beta virt. eigenvalues --    0.38659   0.39440   0.40712   0.42315   0.42625
  Beta virt. eigenvalues --    0.43548   0.44276   0.44930   0.45158   0.46187
  Beta virt. eigenvalues --    0.47307   0.47591   0.48105   0.48443   0.49254
  Beta virt. eigenvalues --    0.50414   0.50433   0.51327   0.52055   0.52990
  Beta virt. eigenvalues --    0.53961   0.54009   0.54335   0.55313   0.55706
  Beta virt. eigenvalues --    0.56880   0.57574   0.57806   0.58716   0.60967
  Beta virt. eigenvalues --    0.61474   0.62316   0.62793   0.65903   0.67683
  Beta virt. eigenvalues --    0.68933   0.69149   0.72778   0.73562   0.74355
  Beta virt. eigenvalues --    0.76788   0.81773   0.84805   0.86070   0.87299
  Beta virt. eigenvalues --    0.87684   0.89352   0.90823   0.94542   0.95068
  Beta virt. eigenvalues --    0.97552   0.99295   0.99594   1.01081   1.01458
  Beta virt. eigenvalues --    1.02845   1.04230   1.05158   1.05874   1.06491
  Beta virt. eigenvalues --    1.08007   1.08996   1.09284   1.09822   1.10258
  Beta virt. eigenvalues --    1.11596   1.13616   1.14942   1.25041   1.28849
  Beta virt. eigenvalues --    1.31715   1.33484   1.38378   1.39386   1.39975
  Beta virt. eigenvalues --    1.44128   1.44634   1.45076   1.45758   1.46742
  Beta virt. eigenvalues --    1.47257   1.49204   1.49537   1.50881   1.51656
  Beta virt. eigenvalues --    1.52049   1.52945   1.53489   1.53588   1.54675
  Beta virt. eigenvalues --    1.54778   1.55704   1.56655   1.58242   1.58487
  Beta virt. eigenvalues --    1.58950   1.61115   1.61394   1.62619   1.62964
  Beta virt. eigenvalues --    1.64162   1.64448   1.70296   1.72962   1.73720
  Beta virt. eigenvalues --    1.74980   1.75327   1.75735   1.76023   1.77067
  Beta virt. eigenvalues --    1.77433   1.77954   1.78974   1.80126   1.81171
  Beta virt. eigenvalues --    1.81568   1.83965   1.86940   1.88472   1.91742
  Beta virt. eigenvalues --    1.92088   1.92568   1.93431   1.94509   1.95122
  Beta virt. eigenvalues --    1.96250   1.97705   1.98932   2.02170   2.03204
  Beta virt. eigenvalues --    2.03924   2.05554   2.06780   2.06990   2.07834
  Beta virt. eigenvalues --    2.08959   2.09372   2.11337   2.12764   2.12985
  Beta virt. eigenvalues --    2.16093   2.19699   2.22029   2.28220   2.29732
  Beta virt. eigenvalues --    2.31455   2.33671   2.34927   2.35882   2.37240
  Beta virt. eigenvalues --    2.37814   2.39390   2.41241   2.44756   2.49099
  Beta virt. eigenvalues --    2.49852   2.49971   2.51384   2.53373   2.54939
  Beta virt. eigenvalues --    2.56709   2.57895   2.61098   2.62877   2.63211
  Beta virt. eigenvalues --    2.64292   2.65156   2.72782   2.75979   2.83719
  Beta virt. eigenvalues --    2.86165   2.87171   2.88687   2.92998   2.97010
  Beta virt. eigenvalues --    3.02917   3.11910   3.19047   3.31480   3.36721
  Beta virt. eigenvalues --    3.40490
          Condensed to atoms (all electrons):
               1          2          3          4          5          6
     1  N    5.734748   0.544489  -0.039847  -0.046452  -0.000142  -0.000610
     2  C    0.544489   4.807006   0.320235   0.312179  -0.037537  -0.011228
     3  C   -0.039847   0.320235   5.231524   0.161099  -0.046469   0.004297
     4  C   -0.046452   0.312179   0.161099   5.120291   0.389296  -0.050563
     5  N   -0.000142  -0.037537  -0.046469   0.389296   6.558496   0.243209
     6  C   -0.000610  -0.011228   0.004297  -0.050563   0.243209   5.451194
     7  C   -0.001103  -0.001034   0.001420  -0.005186  -0.065812   0.182139
     8  C    0.000015  -0.000048  -0.000021  -0.000008   0.006844   0.121358
     9  C    0.000001  -0.000009   0.000001   0.000090  -0.000261  -0.158981
    10  C    0.000002   0.000000   0.000000   0.000010   0.008153   0.126067
    11  C   -0.000033   0.000309  -0.000300   0.003396  -0.065027   0.204052
    12  C   -0.000076   0.003890  -0.006535  -0.052032   0.284186  -0.048612
    13  C    0.000000  -0.000202   0.000078   0.004359  -0.067151   0.008942
    14  C    0.000000   0.000003   0.000005   0.000002   0.008248  -0.000914
    15  C    0.000000   0.000004  -0.000012   0.000105  -0.000395   0.000162
    16  C    0.000000  -0.000035   0.000135   0.000162   0.006267  -0.000365
    17  C    0.000002   0.001910   0.001516  -0.003419  -0.070865   0.006215
    18  H    0.379808  -0.015628   0.007649  -0.019079   0.000334   0.000231
    19  H    0.356260  -0.000668  -0.011429   0.011386  -0.000054  -0.000015
    20  H   -0.000907  -0.042259   0.460978  -0.051725  -0.001049  -0.000088
    21  H    0.000824   0.000211  -0.000409   0.001812  -0.009271  -0.080688
    22  H   -0.000004   0.000005  -0.000001  -0.000022  -0.000114   0.013472
    23  H    0.000000  -0.000000  -0.000000  -0.000000   0.000008  -0.001667
    24  H    0.000000   0.000000  -0.000000   0.000001  -0.000097   0.013205
    25  H   -0.000000  -0.000037  -0.000036  -0.000633  -0.013136  -0.068137
    26  H   -0.000000  -0.000037  -0.000010  -0.000656  -0.013718   0.007893
    27  H   -0.000000  -0.000000   0.000000   0.000003  -0.000077  -0.000041
    28  H    0.000000   0.000000  -0.000000  -0.000000   0.000009   0.000000
    29  H   -0.000000  -0.000002   0.000010  -0.000033  -0.000085   0.000006
    30  H   -0.000003   0.000786   0.000708   0.002633  -0.011477  -0.000352
               7          8          9         10         11         12
     1  N   -0.001103   0.000015   0.000001   0.000002  -0.000033  -0.000076
     2  C   -0.001034  -0.000048  -0.000009   0.000000   0.000309   0.003890
     3  C    0.001420  -0.000021   0.000001   0.000000  -0.000300  -0.006535
     4  C   -0.005186  -0.000008   0.000090   0.000010   0.003396  -0.052032
     5  N   -0.065812   0.006844  -0.000261   0.008153  -0.065027   0.284186
     6  C    0.182139   0.121358  -0.158981   0.126067   0.204052  -0.048612
     7  C    5.201074   0.286037   0.085078  -0.142302   0.065364   0.004962
     8  C    0.286037   4.992913   0.265193   0.103662  -0.137004  -0.000451
     9  C    0.085078   0.265193   5.023120   0.271382   0.088745   0.000182
    10  C   -0.142302   0.103662   0.271382   5.009491   0.271316  -0.000997
    11  C    0.065364  -0.137004   0.088745   0.271316   5.118975   0.005554
    12  C    0.004962  -0.000451   0.000182  -0.000997   0.005554   5.336125
    13  C   -0.000175   0.000019  -0.000067  -0.001106  -0.003620   0.205224
    14  C   -0.000057   0.000007  -0.000008   0.000080  -0.000966   0.118238
    15  C   -0.000001  -0.000000   0.000000  -0.000005  -0.000079  -0.149306
    16  C    0.000002  -0.000000  -0.000000   0.000004   0.000023   0.120176
    17  C   -0.000573  -0.000001   0.000001  -0.000059   0.000135   0.188343
    18  H    0.002902   0.000304   0.000011  -0.000015  -0.000033  -0.000011
    19  H   -0.000017   0.000001  -0.000000  -0.000000   0.000001   0.000006
    20  H   -0.000014  -0.000000  -0.000000   0.000000   0.000002   0.000390
    21  H    0.447057  -0.042670   0.012003  -0.002028   0.011285  -0.000392
    22  H   -0.058636   0.443490  -0.054670   0.010856  -0.001239   0.000007
    23  H    0.012691  -0.059343   0.447808  -0.058298   0.012688   0.000000
    24  H   -0.001330   0.010996  -0.056454   0.445757  -0.057686  -0.000041
    25  H    0.011763  -0.002012   0.011918  -0.048351   0.447189   0.007252
    26  H   -0.001027  -0.000009   0.000260  -0.001430  -0.000758  -0.058800
    27  H    0.000001  -0.000000  -0.000000   0.000001   0.000017   0.012297
    28  H    0.000000   0.000000  -0.000000   0.000000   0.000000  -0.001407
    29  H    0.000000   0.000000   0.000000  -0.000000  -0.000001   0.012605
    30  H    0.000001   0.000000   0.000000  -0.000001   0.000043  -0.072662
              13         14         15         16         17         18
     1  N    0.000000   0.000000   0.000000   0.000000   0.000002   0.379808
     2  C   -0.000202   0.000003   0.000004  -0.000035   0.001910  -0.015628
     3  C    0.000078   0.000005  -0.000012   0.000135   0.001516   0.007649
     4  C    0.004359   0.000002   0.000105   0.000162  -0.003419  -0.019079
     5  N   -0.067151   0.008248  -0.000395   0.006267  -0.070865   0.000334
     6  C    0.008942  -0.000914   0.000162  -0.000365   0.006215   0.000231
     7  C   -0.000175  -0.000057  -0.000001   0.000002  -0.000573   0.002902
     8  C    0.000019   0.000007  -0.000000  -0.000000  -0.000001   0.000304
     9  C   -0.000067  -0.000008   0.000000  -0.000000   0.000001   0.000011
    10  C   -0.001106   0.000080  -0.000005   0.000004  -0.000059  -0.000015
    11  C   -0.003620  -0.000966  -0.000079   0.000023   0.000135  -0.000033
    12  C    0.205224   0.118238  -0.149306   0.120176   0.188343  -0.000011
    13  C    5.103024   0.284875   0.087035  -0.128216   0.050570   0.000000
    14  C    0.284875   5.005621   0.258452   0.094292  -0.131543  -0.000000
    15  C    0.087035   0.258452   5.028473   0.250219   0.081225   0.000000
    16  C   -0.128216   0.094292   0.250219   4.964446   0.316703  -0.000000
    17  C    0.050570  -0.131543   0.081225   0.316703   5.139175   0.000001
    18  H    0.000000  -0.000000   0.000000  -0.000000   0.000001   0.458942
    19  H   -0.000000   0.000000   0.000000   0.000000  -0.000000  -0.020838
    20  H   -0.000014   0.000001  -0.000001   0.000047   0.000247  -0.000070
    21  H    0.000043  -0.000001   0.000000   0.000000  -0.000006   0.000552
    22  H   -0.000002  -0.000000   0.000000   0.000000   0.000000   0.000008
    23  H   -0.000000   0.000000  -0.000000   0.000000   0.000000  -0.000001
    24  H    0.000016   0.000001  -0.000000   0.000000  -0.000000  -0.000000
    25  H   -0.000333  -0.001093   0.000124  -0.000018  -0.000555  -0.000001
    26  H    0.443673  -0.048910   0.011299  -0.001854   0.010659  -0.000000
    27  H   -0.055402   0.446413  -0.054929   0.010371  -0.001407   0.000000
    28  H    0.011878  -0.055098   0.443984  -0.055876   0.011786  -0.000000
    29  H   -0.001281   0.010204  -0.053441   0.442555  -0.053933  -0.000000
    30  H    0.010434  -0.001909   0.011702  -0.041837   0.444911   0.000001
              19         20         21         22         23         24
     1  N    0.356260  -0.000907   0.000824  -0.000004   0.000000   0.000000
     2  C   -0.000668  -0.042259   0.000211   0.000005  -0.000000   0.000000
     3  C   -0.011429   0.460978  -0.000409  -0.000001  -0.000000  -0.000000
     4  C    0.011386  -0.051725   0.001812  -0.000022  -0.000000   0.000001
     5  N   -0.000054  -0.001049  -0.009271  -0.000114   0.000008  -0.000097
     6  C   -0.000015  -0.000088  -0.080688   0.013472  -0.001667   0.013205
     7  C   -0.000017  -0.000014   0.447057  -0.058636   0.012691  -0.001330
     8  C    0.000001  -0.000000  -0.042670   0.443490  -0.059343   0.010996
     9  C   -0.000000  -0.000000   0.012003  -0.054670   0.447808  -0.056454
    10  C   -0.000000   0.000000  -0.002028   0.010856  -0.058298   0.445757
    11  C    0.000001   0.000002   0.011285  -0.001239   0.012688  -0.057686
    12  C    0.000006   0.000390  -0.000392   0.000007   0.000000  -0.000041
    13  C   -0.000000  -0.000014   0.000043  -0.000002  -0.000000   0.000016
    14  C    0.000000   0.000001  -0.000001  -0.000000   0.000000   0.000001
    15  C    0.000000  -0.000001   0.000000   0.000000  -0.000000  -0.000000
    16  C    0.000000   0.000047   0.000000   0.000000   0.000000   0.000000
    17  C   -0.000000   0.000247  -0.000006   0.000000   0.000000  -0.000000
    18  H   -0.020838  -0.000070   0.000552   0.000008  -0.000001  -0.000000
    19  H    0.446160   0.000415  -0.000025   0.000000  -0.000000   0.000000
    20  H    0.000415   0.502260  -0.000004   0.000000   0.000000  -0.000000
    21  H   -0.000025  -0.000004   0.625610  -0.010578  -0.000132   0.000014
    22  H    0.000000   0.000000  -0.010578   0.584957  -0.009479  -0.000131
    23  H   -0.000000   0.000000  -0.000132  -0.009479   0.574202  -0.009581
    24  H    0.000000  -0.000000   0.000014  -0.000131  -0.009581   0.580413
    25  H   -0.000000  -0.000000  -0.000078   0.000012  -0.000124  -0.009861
    26  H   -0.000000  -0.000000   0.000038  -0.000001   0.000001  -0.000008
    27  H   -0.000000  -0.000000  -0.000000  -0.000000   0.000000   0.000000
    28  H    0.000000  -0.000000   0.000000   0.000000  -0.000000   0.000000
    29  H    0.000000   0.000001   0.000000  -0.000000   0.000000  -0.000000
    30  H   -0.000001   0.000018  -0.000001  -0.000000  -0.000000  -0.000000
              25         26         27         28         29         30
     1  N   -0.000000  -0.000000  -0.000000   0.000000  -0.000000  -0.000003
     2  C   -0.000037  -0.000037  -0.000000   0.000000  -0.000002   0.000786
     3  C   -0.000036  -0.000010   0.000000  -0.000000   0.000010   0.000708
     4  C   -0.000633  -0.000656   0.000003  -0.000000  -0.000033   0.002633
     5  N   -0.013136  -0.013718  -0.000077   0.000009  -0.000085  -0.011477
     6  C   -0.068137   0.007893  -0.000041   0.000000   0.000006  -0.000352
     7  C    0.011763  -0.001027   0.000001   0.000000   0.000000   0.000001
     8  C   -0.002012  -0.000009  -0.000000   0.000000   0.000000   0.000000
     9  C    0.011918   0.000260  -0.000000  -0.000000   0.000000   0.000000
    10  C   -0.048351  -0.001430   0.000001   0.000000  -0.000000  -0.000001
    11  C    0.447189  -0.000758   0.000017   0.000000  -0.000001   0.000043
    12  C    0.007252  -0.058800   0.012297  -0.001407   0.012605  -0.072662
    13  C   -0.000333   0.443673  -0.055402   0.011878  -0.001281   0.010434
    14  C   -0.001093  -0.048910   0.446413  -0.055098   0.010204  -0.001909
    15  C    0.000124   0.011299  -0.054929   0.443984  -0.053441   0.011702
    16  C   -0.000018  -0.001854   0.010371  -0.055876   0.442555  -0.041837
    17  C   -0.000555   0.010659  -0.001407   0.011786  -0.053933   0.444911
    18  H   -0.000001  -0.000000   0.000000  -0.000000  -0.000000   0.000001
    19  H   -0.000000  -0.000000  -0.000000   0.000000   0.000000  -0.000001
    20  H   -0.000000  -0.000000  -0.000000  -0.000000   0.000001   0.000018
    21  H   -0.000078   0.000038  -0.000000   0.000000   0.000000  -0.000001
    22  H    0.000012  -0.000001  -0.000000   0.000000  -0.000000  -0.000000
    23  H   -0.000124   0.000001   0.000000  -0.000000   0.000000  -0.000000
    24  H   -0.009861  -0.000008   0.000000   0.000000  -0.000000  -0.000000
    25  H    0.599016  -0.000133  -0.000004   0.000000  -0.000002   0.000033
    26  H   -0.000133   0.575457  -0.009599  -0.000113   0.000010  -0.000058
    27  H   -0.000004  -0.009599   0.567240  -0.009031  -0.000112   0.000011
    28  H    0.000000  -0.000113  -0.009031   0.558038  -0.008847  -0.000122
    29  H   -0.000002   0.000010  -0.000112  -0.008847   0.568945  -0.010617
    30  H    0.000033  -0.000058   0.000011  -0.000122  -0.010617   0.611070
          Atomic-Atomic Spin Densities.
               1          2          3          4          5          6
     1  N    0.020982  -0.003948  -0.001050   0.001336   0.000104   0.000027
     2  C   -0.003948   0.009875   0.010703  -0.010347  -0.001314   0.000452
     3  C   -0.001050   0.010703   0.122948  -0.020842  -0.004620  -0.000026
     4  C    0.001336  -0.010347  -0.020842  -0.027679   0.026301  -0.001083
     5  N    0.000104  -0.001314  -0.004620   0.026301   0.260199  -0.037509
     6  C    0.000027   0.000452  -0.000026  -0.001083  -0.037509   0.061259
     7  C    0.000112  -0.000479   0.000022   0.000898   0.000330   0.013752
     8  C   -0.000010  -0.000006   0.000003   0.000066   0.000435  -0.001655
     9  C   -0.000000  -0.000000  -0.000000   0.000009   0.000058  -0.004124
    10  C   -0.000000   0.000004  -0.000000  -0.000002   0.000091   0.000939
    11  C   -0.000005  -0.000009   0.000033  -0.000798  -0.003912   0.017395
    12  C   -0.000002   0.000054   0.001123  -0.001893  -0.061080   0.001486
    13  C   -0.000000  -0.000008   0.000056  -0.000739  -0.005121  -0.002702
    14  C   -0.000000  -0.000000   0.000001  -0.000010   0.000223  -0.000080
    15  C    0.000000  -0.000000  -0.000003   0.000013   0.000096  -0.000017
    16  C    0.000000   0.000005  -0.000016   0.000074   0.000454   0.000039
    17  C    0.000000   0.000110  -0.000456   0.000253  -0.002018   0.000132
    18  H    0.000344  -0.000177   0.000014  -0.000089  -0.000004   0.000015
    19  H   -0.000188   0.000227   0.000002   0.000041   0.000000   0.000000
    20  H    0.000005  -0.000126   0.000778  -0.000504  -0.000008   0.000003
    21  H    0.000054  -0.000218  -0.000031   0.000325   0.000396  -0.000884
    22  H   -0.000001   0.000002   0.000000  -0.000004  -0.000008   0.000104
    23  H    0.000000   0.000000  -0.000000  -0.000000   0.000000   0.000000
    24  H   -0.000000  -0.000000   0.000000  -0.000000  -0.000005   0.000061
    25  H    0.000000  -0.000002  -0.000003   0.000022   0.000827   0.000193
    26  H    0.000000  -0.000002  -0.000003   0.000025   0.000769  -0.001483
    27  H   -0.000000   0.000000   0.000000  -0.000000  -0.000005   0.000016
    28  H   -0.000000   0.000000  -0.000000  -0.000000   0.000001   0.000000
    29  H   -0.000000  -0.000000   0.000003  -0.000002  -0.000005  -0.000001
    30  H    0.000000  -0.000014  -0.000162  -0.000086   0.000045   0.000009
               7          8          9         10         11         12
     1  N    0.000112  -0.000010  -0.000000  -0.000000  -0.000005  -0.000002
     2  C   -0.000479  -0.000006  -0.000000   0.000004  -0.000009   0.000054
     3  C    0.000022   0.000003  -0.000000  -0.000000   0.000033   0.001123
     4  C    0.000898   0.000066   0.000009  -0.000002  -0.000798  -0.001893
     5  N    0.000330   0.000435   0.000058   0.000091  -0.003912  -0.061080
     6  C    0.013752  -0.001655  -0.004124   0.000939   0.017395   0.001486
     7  C    0.026595  -0.014576  -0.001968  -0.000665   0.001653   0.000234
     8  C   -0.014576   0.006893   0.010852   0.000282  -0.002215   0.000038
     9  C   -0.001968   0.010852   0.132068  -0.002718  -0.002304  -0.000015
    10  C   -0.000665   0.000282  -0.002718  -0.056138  -0.004921  -0.000182
    11  C    0.001653  -0.002215  -0.002304  -0.004921   0.105044  -0.002653
    12  C    0.000234   0.000038  -0.000015  -0.000182  -0.002653   0.175577
    13  C   -0.000025   0.000044   0.000037   0.000024  -0.004767   0.028258
    14  C   -0.000003  -0.000000  -0.000000   0.000009   0.000174   0.000139
    15  C    0.000000   0.000000   0.000000   0.000000   0.000036  -0.008924
    16  C   -0.000000  -0.000000   0.000000   0.000000   0.000033  -0.001556
    17  C   -0.000010  -0.000001  -0.000000  -0.000002  -0.000112   0.023177
    18  H    0.000012  -0.000018  -0.000001   0.000000  -0.000000   0.000000
    19  H    0.000000  -0.000000  -0.000000   0.000000   0.000000   0.000000
    20  H   -0.000001  -0.000000   0.000000   0.000000  -0.000000   0.000028
    21  H    0.000551   0.000249   0.000052  -0.000039   0.000099  -0.000017
    22  H    0.000433   0.000130  -0.000615  -0.000005  -0.000039  -0.000000
    23  H   -0.000118  -0.000370   0.001242  -0.000002  -0.000091   0.000000
    24  H   -0.000032   0.000058  -0.000498   0.000255  -0.000072   0.000015
    25  H   -0.000067  -0.000043   0.000041   0.000048   0.001314  -0.001491
    26  H   -0.000057   0.000043   0.000025   0.000017  -0.000578  -0.000729
    27  H    0.000000  -0.000000  -0.000000  -0.000000   0.000013   0.000178
    28  H    0.000000  -0.000000  -0.000000   0.000000   0.000000   0.000009
    29  H    0.000000   0.000000  -0.000000  -0.000000  -0.000000   0.000115
    30  H   -0.000000   0.000000   0.000000  -0.000000  -0.000002  -0.000542
              13         14         15         16         17         18
     1  N   -0.000000  -0.000000   0.000000   0.000000   0.000000   0.000344
     2  C   -0.000008  -0.000000  -0.000000   0.000005   0.000110  -0.000177
     3  C    0.000056   0.000001  -0.000003  -0.000016  -0.000456   0.000014
     4  C   -0.000739  -0.000010   0.000013   0.000074   0.000253  -0.000089
     5  N   -0.005121   0.000223   0.000096   0.000454  -0.002018  -0.000004
     6  C   -0.002702  -0.000080  -0.000017   0.000039   0.000132   0.000015
     7  C   -0.000025  -0.000003   0.000000  -0.000000  -0.000010   0.000012
     8  C    0.000044  -0.000000   0.000000  -0.000000  -0.000001  -0.000018
     9  C    0.000037  -0.000000   0.000000   0.000000  -0.000000  -0.000001
    10  C    0.000024   0.000009   0.000000   0.000000  -0.000002   0.000000
    11  C   -0.004767   0.000174   0.000036   0.000033  -0.000112  -0.000000
    12  C    0.028258   0.000139  -0.008924  -0.001556   0.023177   0.000000
    13  C    0.148879  -0.015752  -0.003843  -0.003531   0.002238   0.000000
    14  C   -0.015752  -0.083689   0.001929   0.000608  -0.001511   0.000000
    15  C   -0.003843   0.001929   0.280621   0.016811  -0.003089   0.000000
    16  C   -0.003531   0.000608   0.016811  -0.001698  -0.024015  -0.000000
    17  C    0.002238  -0.001511  -0.003089  -0.024015   0.048908  -0.000000
    18  H    0.000000   0.000000   0.000000  -0.000000  -0.000000  -0.000842
    19  H    0.000000   0.000000   0.000000   0.000000  -0.000000   0.000042
    20  H    0.000001  -0.000000  -0.000000  -0.000004   0.000031   0.000000
    21  H    0.000001   0.000000   0.000000   0.000000  -0.000004   0.000006
    22  H   -0.000001  -0.000000  -0.000000   0.000000   0.000000  -0.000001
    23  H    0.000000   0.000000  -0.000000  -0.000000   0.000000   0.000000
    24  H    0.000017  -0.000001  -0.000000  -0.000000   0.000000   0.000000
    25  H   -0.000794   0.000035   0.000027   0.000027  -0.000101  -0.000000
    26  H    0.002557   0.000152   0.000060  -0.000062  -0.000040   0.000000
    27  H    0.000096   0.000329  -0.000883   0.000088  -0.000052  -0.000000
    28  H   -0.000213  -0.000194   0.002395  -0.000607  -0.000232  -0.000000
    29  H   -0.000050   0.000017  -0.001039   0.000643   0.000367   0.000000
    30  H    0.000083  -0.000073   0.000089   0.000039   0.001349  -0.000000
              19         20         21         22         23         24
     1  N   -0.000188   0.000005   0.000054  -0.000001   0.000000  -0.000000
     2  C    0.000227  -0.000126  -0.000218   0.000002   0.000000  -0.000000
     3  C    0.000002   0.000778  -0.000031   0.000000  -0.000000   0.000000
     4  C    0.000041  -0.000504   0.000325  -0.000004  -0.000000  -0.000000
     5  N    0.000000  -0.000008   0.000396  -0.000008   0.000000  -0.000005
     6  C    0.000000   0.000003  -0.000884   0.000104   0.000000   0.000061
     7  C    0.000000  -0.000001   0.000551   0.000433  -0.000118  -0.000032
     8  C   -0.000000  -0.000000   0.000249   0.000130  -0.000370   0.000058
     9  C   -0.000000   0.000000   0.000052  -0.000615   0.001242  -0.000498
[...]
 9420,0.00005553,0.00012222,-0.00000842,-0.00002165,-0.00002627,-0.0000
 2555,0.00001486,-0.00000312,-0.00001223,0.00000144,-0.00000991,0.00001
 475,-0.00000706,0.00010135,-0.00055419,-0.00036539,-0.00026973,-0.0004
 0345,0.00006194,0.00051194,-0.00205908,-0.00226518,0.08622794,0.149910
 86,0.00003090,-0.00006394,-0.00000086,-0.00003864,0.00004124,0.0000165
 8,0.00001574,-0.00004319,-0.00001900,-0.00000391,0.00004966,0.00005086
 ,0.00007511,-0.00011959,0.00053642,-0.00232827,0.00313261,0.00223272,0
 .00005904,-0.00086662,0.00015675,-0.00314488,0.00410343,0.00051971,0.0
 1055743,0.01153711,-0.00657164,0.08181840,0.12195316,-0.17383974,-0.00
 336998,-0.00206550,0.00646480,-0.00014457,0.00035247,0.00003392,-0.000
 02486,-0.00035154,-0.00004541,-0.00009562,-0.00002034,-0.00001175,-0.0
 0006997,-0.00022161,-0.00012851,-0.00004498,0.00032343,0.00008957,0.00
 017576,-0.00000988,-0.00002042,-0.00002164,-0.00000084,0.00000406,0.00
 000112,0.00000676,-0.00000406,0.00000115,0.00001220,-0.00000368,0.0001
 4706,-0.00037162,-0.00027529,0.00049767,0.00028211,-0.00047391,0.00073
 104,-0.00208115,-0.00078144,-0.08525762,-0.13331253,0.17317110,-0.0000
 8902,0.00007474,-0.00002297,0.00018545,-0.00008296,0.00004790,0.000017
 60,0.00014923,0.00003049,0.00014532,-0.00032231,-0.00010607,0.00174589
 ,0.00088929,0.00113144,0.00710524,-0.00674966,0.01094391,-0.00012312,-
 0.00309123,0.00129420,-0.00085588,-0.00044469,0.00060053,-0.00473301,-
 0.00246356,-0.00042648,-0.00908599,0.01273857,-0.02114008,-0.13188698,
 0.05959667,-0.11376939,-0.00074231,-0.00012949,0.00026139,-0.00048817,
 0.00000911,0.00061450,-0.00037729,0.00013273,-0.00015494,0.00012398,-0
 .00009446,0.00011564,-0.00009729,0.00041807,0.00005065,0.00038523,-0.0
 0007999,-0.00001186,0.00001937,0.00001512,0.00000490,-0.00000573,-0.00
 000969,-0.00000151,-0.00001509,0.00000266,-0.00000638,0.00042128,-0.00
 039040,0.00039212,-0.00001442,0.00021740,0.00008745,-0.00035465,0.0006
 8954,-0.00088642,0.00082764,0.00079379,0.00042186,0.13777960,0.0001092
 4,-0.00007439,-0.00004548,-0.00019803,0.00012007,0.00002158,0.00011905
 ,-0.00000310,0.00004104,-0.00021426,-0.00037854,0.00027448,0.00380666,
 -0.00246427,-0.00185630,0.00740977,-0.00477983,0.01335691,-0.00331037,
 0.00116074,0.00308218,-0.00040320,-0.00068529,-0.00080252,-0.00238045,
 0.00490779,0.00214546,-0.00304933,0.00767052,-0.00319094,0.05840824,-0
 .09094000,0.09472270,-0.00024048,0.00156265,-0.00095707,0.00059936,-0.
 00043726,-0.00016653,-0.00093349,0.00041550,-0.00057935,0.00062663,0.0
 0015025,0.00049306,0.00008724,0.00019709,0.00005269,0.00034830,-0.0002
 3528,0.00025006,-0.00004574,-0.00003265,0.00005183,0.00000212,-0.00000
 057,0.00001355,-0.00000365,0.00001017,0.00001454,0.00037752,0.00042622
 ,0.00087991,0.00016426,-0.00035812,-0.00023999,-0.00007762,-0.00016490
 ,-0.00053483,0.00072539,-0.00222457,-0.00228989,-0.06182069,0.08617455
 ,0.00029051,-0.00026339,0.00002632,-0.00065099,0.00028462,-0.00002955,
 0.00016292,-0.00037095,0.00000420,0.00011551,0.00087204,-0.00005467,-0
 .00066853,-0.00275593,-0.00052588,-0.01116323,0.00504951,-0.00709671,0
 .00134834,0.00342467,0.00029132,0.00054298,-0.00050081,-0.00039166,-0.
 00055161,0.00319348,0.00242243,0.00265646,0.00160748,0.00533269,-0.114
 65161,0.09587392,-0.20462991,0.00125343,-0.00028907,-0.00081583,0.0005
 2053,0.00037010,-0.00011131,-0.00061911,0.00024268,-0.00017952,0.00059
 007,0.00050804,0.00058382,0.00011747,-0.00049339,-0.00014766,-0.000087
 89,-0.00016798,0.00016789,-0.00007883,-0.00003259,-0.00001733,0.000022
 72,0.00006324,0.00001041,0.00005783,0.00001100,-0.00000202,-0.00056319
 ,0.00080554,0.00001437,0.00005843,-0.00027455,-0.00020276,0.00016718,-
 0.00034487,-0.00029486,0.00067104,-0.00201777,-0.00106606,0.12058390,-
 0.10476522,0.20685354,-0.00003318,0.00002288,-0.00001115,0.00005445,-0
 .00005614,-0.00001546,0.00002355,0.00001091,0.00003917,-0.00005311,-0.
 00037140,-0.00004656,-0.00128714,0.00012683,0.00184049,-0.00026647,0.0
 0170651,0.00067399,0.00039360,-0.00026992,0.00012974,-0.00054355,-0.00
 024134,0.00014144,-0.00005895,0.00029256,-0.00040827,0.00016554,0.0000
 7075,0.00025474,-0.00088574,0.00106149,0.00071711,-0.00169110,0.000844
 94,-0.00277708,-0.23222169,-0.01487874,-0.14428613,-0.00788758,-0.0021
 7723,-0.01055841,0.00158380,0.00384981,-0.00256971,-0.00000934,0.00070
 650,0.00097474,0.00324017,-0.00028082,-0.00129920,0.00001563,0.0000075
 7,0.00000433,-0.00000032,-0.00000395,-0.00000274,0.00000255,-0.0000096
 4,-0.00000871,0.00003304,-0.00003223,0.00000734,-0.00002422,0.00003716
 ,0.00003249,-0.00000364,-0.00000680,-0.00001146,-0.00000604,-0.0000237
 2,0.00000166,0.00010385,-0.00011727,-0.00013078,0.24058693,0.00004346,
 0.00000585,0.00000938,-0.00002217,0.00006885,-0.00009373,0.00009669,0.
 00013703,-0.00006011,-0.00035901,-0.00036284,0.00019639,-0.00208717,0.
 00179370,0.00014776,0.00066034,-0.00019884,-0.00018325,-0.00007653,0.0
 0005540,0.00020204,0.00028642,0.00016728,-0.00006538,-0.00013899,-0.00
 001937,-0.00015793,0.00033049,-0.00000494,0.00021046,0.00033411,-0.000
 22627,-0.00054839,-0.01924875,-0.00092400,-0.01533609,-0.01352666,-0.0
 5351441,-0.01533831,0.01916116,0.00718163,0.01262840,0.00428524,-0.002
 91501,-0.00099230,0.00020513,-0.00074108,0.00046922,0.00012711,-0.0040
 9047,-0.00162019,-0.00001387,-0.00003456,-0.00001115,-0.00000233,-0.00
 001283,-0.00000940,-0.00000834,0.00001816,0.00001349,0.00000553,-0.000
 07962,-0.00000413,0.00000322,-0.00000730,0.00001076,-0.00000277,0.0000
 0793,0.00000555,-0.00003409,0.00006274,0.00005318,-0.00002280,0.000054
 59,0.00000006,0.01092633,0.05269065,-0.00025013,0.00022609,-0.00003036
 ,0.00060160,-0.00022744,0.00004214,-0.00016480,0.00027525,0.00003058,-
 0.00048447,-0.00052963,-0.00034261,0.00008929,0.00208566,-0.00165013,0
 .00220354,-0.00101336,-0.00030880,-0.00041293,0.00059034,-0.00018649,0
 .00064838,0.00037813,-0.00040548,-0.00008359,-0.00056660,0.00076921,-0
 .00034746,0.00006713,-0.00002687,0.00001567,-0.00121838,0.00000998,-0.
 00697892,0.00248027,-0.00060319,-0.14589873,-0.01422203,-0.14445207,0.
 00099834,-0.00412676,0.00746080,-0.00486555,-0.00215911,0.00339964,0.0
 0044089,-0.00026314,-0.00099480,-0.00272704,-0.00195028,0.00083173,0.0
 0007658,0.00003485,0.00001526,-0.00002163,-0.00005263,0.00000930,-0.00
 004671,-0.00001691,0.00003476,-0.00000839,0.00003694,0.00004967,0.0000
 0246,-0.00002772,-0.00005455,-0.00002698,0.00003358,0.00002755,0.00001
 358,-0.00002684,-0.00005371,-0.00003991,0.00007231,-0.00012262,0.15538
 828,0.01909950,0.13965395,-0.00000375,0.00004581,-0.00000890,-0.000004
 25,0.00003390,-0.00003879,0.00002598,-0.00001569,-0.00002200,-0.000279
 89,0.00021537,0.00014274,0.00028708,0.00114999,0.00017718,0.00029629,0
 .00011249,-0.00002760,-0.00004256,0.00001965,0.00001965,0.00002675,0.0
 0001419,-0.00002688,-0.00002765,-0.00002918,0.00003124,-0.00001456,-0.
 00001362,-0.00001797,-0.00001213,-0.00006517,0.00000944,0.00050893,0.0
 0397845,-0.00287108,0.00659442,0.01778665,0.00765737,-0.06219465,-0.05
 153167,-0.03287688,-0.00153938,-0.02151666,-0.01163348,-0.00228047,0.0
 0084100,-0.00480064,-0.00121026,0.00057985,-0.00000726,0.00001591,0.00
 000957,0.00000896,-0.00000638,0.00000134,-0.00000674,0.00000752,0.0000
 0180,0.00001717,0.00000202,-0.00000034,0.00000982,-0.00000540,0.000000
 43,-0.00000298,-0.00000616,0.00000897,0.00000554,-0.00001513,0.0000111
 1,0.00001060,0.00003855,0.00004078,0.00001637,-0.00064246,-0.00086590,
 0.00219243,0.06090191,-0.00004719,0.00004338,0.00000010,0.00005577,-0.
 00007596,0.00001757,-0.00005572,0.00001137,-0.00000315,0.00016250,-0.0
 0017159,0.00001305,-0.00020239,-0.00061736,-0.00030064,-0.00020621,-0.
 00004710,-0.00001550,0.00005421,-0.00002791,0.00003453,-0.00001945,-0.
 00001331,0.00001758,0.00001869,-0.00001021,0.00001937,-0.00003160,0.00
 002045,-0.00003290,0.00001549,0.00006197,0.00000016,0.00388797,-0.0001
 7012,-0.00037714,-0.00566317,-0.01295997,-0.01004688,-0.05040885,-0.27
 322488,-0.11533726,0.00189579,0.00377590,0.00077361,0.00124514,0.00177
 918,-0.00107266,0.00002589,0.00041919,0.00039546,0.00001055,-0.0000042
 7,0.00000075,-0.00000108,-0.00001782,-0.00000305,-0.00000552,-0.000019
 56,0.00000223,0.00000402,-0.00000764,-0.00000068,0.00000335,0.00000028
 ,0.00000234,0.00000492,0.00000226,-0.00000038,0.00000635,0.00000008,-0
 .00000688,0.00001023,-0.00001197,-0.00001056,-0.00098856,0.00041438,0.
 00089282,0.05087973,0.28065246,0.00002244,-0.00001193,0.00000260,0.000
 02594,0.00001871,0.00002342,0.00005060,0.00004415,0.00004370,-0.000041
 63,-0.00002286,-0.00013137,0.00060164,-0.00000883,0.00044741,-0.000577
 36,-0.00022964,0.00015347,0.00018989,-0.00014194,0.00002985,-0.0003137
 6,-0.00019939,0.00017556,0.00009289,0.00021028,-0.00025280,0.00000662,
 0.00007810,-0.00001127,0.00020311,0.00033726,-0.00015145,-0.00555081,-
 0.00139722,0.00353729,0.00038721,0.00448645,0.00722906,-0.03580521,-0.
 11450633,-0.10498859,-0.00075273,-0.01325712,-0.00060456,-0.00450443,-
 0.00087402,0.00272843,0.00155870,0.00011185,0.00014929,-0.00001778,-0.
 00002749,-0.00001657,-0.00000334,-0.00001386,0.00001776,-0.00002162,0.
 00001528,-0.00004127,0.00000117,0.00002306,-0.00000768,0.00000045,0.00
 001842,0.00002863,0.00001669,-0.00000589,-0.00001195,0.00001306,-0.000
 00110,0.00000290,-0.00004147,-0.00007326,-0.00006590,0.00205460,0.0013
 8601,-0.00256321,0.04024796,0.12364658,0.09665451,0.00009695,-0.000101
 22,0.00000108,-0.00022914,0.00012301,0.00003746,0.00010901,-0.00012896
 ,0.00004113,-0.00000761,0.00017833,-0.00023733,-0.00089331,-0.00011202
 ,0.00005192,0.00056876,0.00035874,0.00000789,-0.00024926,0.00012124,-0
 .00010006,0.00026158,0.00019638,-0.00016590,-0.00009961,-0.00009712,0.
 00006758,0.00021171,-0.00003880,0.00013455,-0.00027616,-0.00028504,0.0
 0018593,0.00029003,-0.00108116,0.00029894,-0.00225467,0.00041548,-0.00
 509364,-0.00587847,0.01943688,-0.00270754,-0.16152861,0.13922808,-0.02
 569628,0.01003457,-0.00835088,-0.00169726,0.00080935,-0.00145432,-0.00
 292379,-0.00001829,0.00001106,-0.00001194,0.00001294,0.00004337,0.0000
 0962,0.00004728,0.00000378,-0.00002027,-0.00000383,-0.00001648,-0.0000
 0623,-0.00000202,-0.00000671,-0.00001240,-0.00001664,-0.00000258,-0.00
 000129,-0.00000462,0.00001114,0.00001364,0.00000280,0.00001093,-0.0000
 1682,-0.00056249,0.00067491,0.00041820,-0.00024002,-0.00053411,0.00179
 885,0.16003391,-0.00001533,0.00003586,0.00000070,0.00009088,-0.0000106
 4,0.00000942,0.00004873,0.00012358,0.00000550,-0.00015733,-0.00039525,
 0.00011037,0.00064342,0.00006811,0.00020097,-0.00087007,-0.00013503,0.
 00007820,0.00035247,-0.00026481,0.00015531,-0.00036310,-0.00023034,0.0
 0020906,0.00011313,0.00015594,-0.00017277,-0.00012978,0.00007830,-0.00
 010836,0.00028657,0.00044810,-0.00020212,-0.00108089,0.00068424,-0.000
 41547,-0.00054827,0.00039722,-0.00231379,-0.00489041,0.00857240,-0.003
 01285,0.13945108,-0.23150404,0.02277411,0.01597666,-0.01167451,0.00315
 454,-0.00046777,-0.00295445,-0.00304094,-0.00000417,-0.00002935,-0.000
 01109,-0.00000495,-0.00002668,0.00000093,-0.00001509,0.00001272,-0.000
 02427,0.00000934,0.00000951,-0.00000630,-0.00000293,0.00001815,0.00002
 907,0.00002254,-0.00000264,-0.00000785,0.00000125,-0.00000070,-0.00001
 005,-0.00000172,-0.00002473,-0.00001583,-0.00037334,0.00024817,0.00020
 848,-0.00061830,0.00020632,0.00077004,-0.14760136,0.23629941,-0.000079
 31,0.00005896,-0.00001067,0.00020115,-0.00008115,-0.00004372,-0.000134
 00,0.00009407,-0.00003939,-0.00001454,0.00002931,0.00008481,0.00043521
 ,0.00041860,-0.00013594,0.00036220,-0.00030577,-0.00012942,-0.00007044
 ,0.00014946,-0.00001694,0.00014531,0.00005121,-0.00005194,-0.00000490,
 -0.00011645,0.00018389,-0.00015554,-0.00003832,-0.00006689,0.00000804,
 -0.00017096,0.00001976,-0.00021561,-0.00039650,-0.00065389,-0.00453181
 ,-0.00103352,0.00274421,-0.01166620,0.01003581,0.00603324,-0.02545527,
 0.02303138,-0.05217841,0.00561895,-0.01150410,0.00824578,-0.00249494,-
 0.00298620,0.00220784,0.00002420,0.00001499,0.00002033,-0.00000630,-0.
 00001691,-0.00001213,-0.00001612,0.00000544,0.00003789,-0.00000337,-0.
 00000129,0.00001521,0.00000610,-0.00001377,-0.00001952,-0.00000552,0.0
 0001078,0.00001385,0.00000154,-0.00001005,-0.00001054,0.00000133,0.000
 02640,0.00003638,0.00002980,0.00082806,-0.00090509,0.00181688,0.001068
 93,-0.00172014,0.03400698,-0.01969998,0.03813515,0.00009293,-0.0000875
 7,-0.00000530,-0.00018175,0.00011479,0.00005091,0.00011519,-0.00008618
 ,0.00004913,0.00000777,0.00000120,-0.00016130,-0.00030913,-0.00067301,
 -0.00014513,-0.00014869,0.00004693,0.00018173,0.00005809,0.00007177,0.
 00009110,-0.00006123,-0.00008358,0.00002818,0.00001627,0.00003466,-0.0
 0002148,-0.00003319,-0.00001931,-0.00003108,0.00002977,0.00004771,-0.0
 0008006,0.00149533,0.00354447,-0.00341714,0.00040885,0.00011079,0.0008
 3596,0.00216603,0.00020465,-0.00183742,0.00093320,0.00179985,-0.002079
 35,-0.24777835,-0.01499138,-0.13961845,-0.00666333,-0.00257051,-0.0092
 5244,-0.00002334,-0.00000600,-0.00000746,0.00000999,0.00002824,-0.0000
 0561,0.00003515,0.00002921,-0.00001782,-0.00000260,0.00001028,-0.00000
 203,0.00000383,-0.00001125,-0.00001148,-0.00000086,0.00000824,0.000007
 46,-0.00000556,-0.00000182,-0.00000312,-0.00001958,0.00001791,0.000012
 59,-0.00024109,-0.00003692,0.00018942,-0.00003721,0.00006358,0.0000142
 1,-0.00032970,-0.00036412,0.00149237,0.25124676,0.00001307,-0.00003100
 ,-0.00000907,-0.00005914,-0.00003695,0.00002399,0.00003538,-0.00006049
 ,0.00002411,0.00008378,0.00027685,-0.00007675,0.00157475,0.00000576,0.
 00059752,-0.00025291,-0.00036384,0.00025735,0.00020213,-0.00001248,0.0
 0001687,-0.00007202,-0.00006889,0.00008016,0.00002661,0.00003025,-0.00
 002564,-0.00004366,0.00001576,-0.00003271,0.00005995,0.00010596,-0.000
 05946,0.00317903,-0.00250685,-0.00133685,0.00038110,-0.00106003,0.0001
 3914,-0.00027181,-0.00394675,-0.00290343,-0.02167502,0.00179511,-0.015
 20176,-0.01552975,-0.05526855,-0.01508803,0.02061215,0.00495844,0.0131
 1926,-0.00000227,-0.00000201,0.00000429,0.00001010,0.00000377,0.000001
 99,0.00006172,-0.00003030,0.00003005,-0.00000143,0.00000280,-0.0000054
 0,0.00000919,0.00000442,0.00000155,0.00000467,0.00000017,-0.00000107,0
 .00000235,-0.00000227,-0.00000486,-0.00000592,-0.00000731,-0.00000089,
 -0.00010219,0.00007170,0.00008606,-0.00092498,0.00009924,-0.00052505,-
 0.00043477,0.00057219,0.00081645,0.01394974,0.05509917,0.00000536,-0.0
 0002538,0.00000109,-0.00001690,0.00002805,-0.00002869,-0.00007212,-0.0
 0000398,-0.00005079,-0.00003161,0.00026500,0.00002050,-0.00096461,0.00
 068094,0.00006619,0.00117882,0.00035077,-0.00043945,-0.00055051,0.0001
 4520,-0.00030386,0.00042408,0.00036700,-0.00026938,-0.00016402,-0.0001
 2184,0.00005776,0.00040387,-0.00004666,0.00027945,-0.00045271,-0.00050
 630,0.00034306,-0.00297799,-0.00343998,0.00522714,0.00064758,0.0006473
 7,-0.00024088,-0.00201703,-0.00265612,0.00238771,-0.00933054,0.0016944
 3,-0.00045527,-0.13939803,-0.01611211,-0.13800304,-0.00189622,-0.00237
 938,0.00480732,0.00000944,0.00003191,0.00001034,0.00000390,0.00002518,
 0.00001415,-0.00000554,0.00001669,0.00002162,-0.00000576,-0.00002852,-
 0.00000100,-0.00000900,0.00000219,-0.00000441,-0.00002477,-0.00001584,
 -0.00001100,0.00000238,0.00001721,0.00003067,0.00000840,-0.00002952,-0
 .00003995,0.00023803,0.00001241,-0.00021425,-0.00034417,0.00013954,-0.
 00022492,0.00123462,0.00095067,-0.00135700,0.15155558,0.01870888,0.131
 27725,0.00018266,-0.00025582,0.00001530,-0.00024382,0.00043897,-0.0000
 4499,0.00043215,0.00063327,-0.00036922,-0.00060706,-0.00004391,-0.0003
 2382,0.00134791,-0.00162023,0.00176499,-0.00080705,-0.00010967,0.00015
 836,0.00029513,-0.00014165,0.00008038,-0.00016947,-0.00011996,0.000101
 39,0.00007284,0.00006815,-0.00006756,-0.00009468,0.00001582,-0.0000344
 0,0.00016026,0.00025916,-0.00014956,-0.00207121,-0.01971873,-0.0104846
 0,-0.00277375,0.00149869,-0.00356640,-0.00033625,0.00022707,0.00071839
 ,0.00007786,0.00388260,-0.00407616,0.00898279,0.01673507,0.00746888,-0
 .06281004,-0.05055214,-0.03687469,-0.00006586,-0.00002273,-0.00002986,
 0.00004107,0.00006610,-0.00002421,0.00027032,-0.00014732,0.00015433,0.
 00000538,0.00000683,-0.00002507,0.00000071,0.00001025,0.00000960,0.000
 00714,-0.00000441,-0.00000182,-0.00000034,-0.00001090,-0.00001013,-0.0
 0001326,-0.00005884,-0.00000571,0.00021498,-0.00069385,-0.00092144,-0.
 00014306,-0.00018033,0.00034408,0.00011557,0.00051284,0.00070381,-0.00
 078354,-0.00082983,0.00254946,0.05871261,0.00004990,0.00010313,-0.0000
 8581,-0.00002511,-0.00048563,0.00008181,0.00075078,-0.00124249,0.00091
 452,0.00051197,0.00043035,0.00074791,-0.00040802,-0.00056902,0.0008936
 1,-0.00040217,-0.00003489,-0.00010985,0.00013498,-0.00011161,0.0000801
 3,-0.00015283,-0.00010795,0.00008021,0.00005477,0.00006820,-0.00006996
 ,-0.00006994,0.00000862,-0.00003091,0.00012543,0.00022417,-0.00012307,
 0.00210589,0.00236117,0.00125694,0.00087567,0.00163631,-0.00064522,0.0
 0041441,0.00004901,0.00070572,0.00432469,-0.00192856,-0.00092723,-0.00
 629707,-0.01348732,-0.01173433,-0.05058147,-0.26148029,-0.11956103,0.0
 0002831,-0.00001422,-0.00003921,-0.00000603,-0.00001082,0.00004558,0.0
 0004031,-0.00016132,0.00032811,-0.00000251,0.00001431,0.00000173,-0.00
 000352,0.00000674,0.00001122,0.00000875,-0.00000016,0.00000145,-0.0000
 0439,-0.00000281,-0.00000733,-0.00002759,-0.00002736,-0.00000258,0.000
 26903,0.00015347,-0.00016657,-0.00014956,-0.00010682,0.00014974,-0.000
 56780,-0.00067707,-0.00026488,-0.00115236,0.00035611,0.00128220,0.0501
 5550,0.27503675,0.00033307,-0.00037571,-0.00005630,-0.00001503,0.00041
 225,0.00006193,-0.00015318,0.00079220,-0.00010796,-0.00121992,-0.00020
 695,-0.00028046,0.00221281,0.00105943,-0.00150884,-0.00037283,-0.00018
 132,0.00000732,0.00017000,-0.00001150,0.00008753,0.00002565,0.00001697
 ,-0.00000772,0.00001428,-0.00010373,0.00014147,-0.00016614,0.00000649,
 -0.00012448,0.00018204,0.00001917,0.00000590,-0.00053029,-0.01222357,-
 0.00238415,-0.00397568,-0.00018492,0.00142529,0.00109139,-0.00013152,-
 0.00052058,-0.00475040,-0.00144010,0.00440756,-0.00089991,0.00539035,0
 .00789746,-0.03748055,-0.12155846,-0.10628828,-0.00006464,-0.00003600,
 0.00001455,0.00003476,0.00005835,0.00000821,0.00011679,0.00040832,-0.0
 0005887,-0.00000576,-0.00000449,-0.00001947,0.00000124,-0.00000272,-0.
 00000871,-0.00000197,0.00000870,0.00000793,0.00000657,-0.00000895,-0.0
 0000404,0.00001689,0.00003219,0.00005085,-0.00040228,-0.00085229,0.000
 57967,0.00032201,0.00018309,-0.00043220,0.00038236,0.00038430,-0.00042
 673,0.00218804,0.00136332,-0.00290036,0.04294066,0.12718710,0.10043349
 \\0.00000636,0.00001219,0.00002013,-0.00000525,-0.00003501,-0.00003667
 ,0.00000277,-0.00002153,0.00000942,0.00000671,0.00004136,0.00001997,-0
 .00002327,-0.00003345,-0.00000532,0.00004701,0.00001326,0.00001391,-0.
 00001438,0.00000123,-0.00000025,0.00000301,-0.00000123,0.00000244,-0.0
 0000706,0.00000698,-0.00001070,0.00001020,-0.00000314,0.00000447,-0.00
 001444,0.00000299,-0.00001134,-0.00002212,0.00000443,-0.00001860,0.000
 01070,0.00001204,0.00001303,-0.00001216,0.00000071,-0.00000799,0.00001
 800,0.00001320,0.00001582,-0.00000527,-0.00002544,-0.00001040,0.000007
 40,0.00000259,0.00000516,-0.00000004,0.00000267,-0.00000119,-0.0000006
 7,0.00000034,-0.00000035,-0.00000176,0.00000783,0.00000280,-0.00000111
 ,-0.00000139,-0.00000524,0.00000438,0.00000312,-0.00000284,0.00000031,
 0.00000043,0.00000012,-0.00000018,0.00000053,-0.00000245,-0.00000245,-
 0.00000247,0.00000052,0.00000086,-0.00000480,-0.00000121,-0.00000057,0
 .00000099,-0.00000092,-0.00000465,-0.00000306,0.00000069,-0.00000158,0
 .00000554,0.00000111,-0.00000076,-0.00000088,0.00000587\\\@


 THE SECRET OF SUCCESS IN LIFE IS TO EAT WHAT YOU LIKE, AND LET THE FOOD
 FIGHT IT OUT INSIDE YOU. -- FROM A FORTUNE COOKIE
 Job cpu time:       0 days  5 hours 30 minutes 40.4 seconds.
 Elapsed time:       0 days  0 hours 20 minutes 50.9 seconds.
 File lengths (MBytes):  RWF=    960 Int=      0 D2E=      0 Chk=     24 Scr=     16
 Normal termination of Gaussian 16 at Wed May 11 07:08:49 2022.
