 Entering Gaussian System, Link 0=/mnt/gpfs3_amd/share/apps/amd/gaussian/g16-A.03/g16/g16
 Input=/scratch/rdu230/d3tales/high_throughput/runfiles//06IVBN/gaussian/gas_phase/opt/freq_opt_cation2.com
 Output=/scratch/rdu230/d3tales/high_throughput/runfiles//06IVBN/gaussian/gas_phase/opt/freq_opt_cation2.log
 Initial command:
 /mnt/gpfs3_amd/share/apps/amd/gaussian/g16-A.03/g16/l1.exe "/scratch/rdu230/d3tales/high_throughput/runfiles/06IVBN/gaussian/gas_phase/opt/Gau-1203540.inp" -scrdir="/scratch/rdu230/d3tales/high_throughput/runfiles/06IVBN/gaussian/gas_phase/opt/"
 Entering Link 1 = /mnt/gpfs3_amd/share/apps/amd/gaussian/g16-A.03/g16/l1.exe PID=   1203541.
  
 Copyright (c) 1988,1990,1992,1993,1995,1998,2003,2009,2016,
            Gaussian, Inc.  All Rights Reserved.
  
 This is part of the Gaussian(R) 16 program.  It is based on
 the Gaussian(R) 09 system (copyright 2009, Gaussian, Inc.),
 the Gaussian(R) 03 system (copyright 2003, Gaussian, Inc.),
 the Gaussian(R) 98 system (copyright 1998, Gaussian, Inc.),
 the Gaussian(R) 94 system (copyright 1995, Gaussian, Inc.),
 the Gaussian 92(TM) system (copyright 1992, Gaussian, Inc.),
 the Gaussian 90(TM) system (copyright 1990, Gaussian, Inc.),
 the Gaussian 88(TM) system (copyright 1988, Gaussian, Inc.),
 the Gaussian 86(TM) system (copyright 1986, Carnegie Mellon
 University), and the Gaussian 82(TM) system (copyright 1983,
 Carnegie Mellon University). Gaussian is a federally registered
 trademark of Gaussian, Inc.
  
 This software contains proprietary and confidential information,
 including trade secrets, belonging to Gaussian, Inc.
  
 This software is provided under written license and may be
 used, copied, transmitted, or stored only in accord with that
 written license.
  
 The following legend is applicable only to US Government
 contracts under FAR:
  
                    RESTRICTED RIGHTS LEGEND
  
 Use, reproduction and disclosure by the US Government is
 subject to restrictions as set forth in subparagraphs (a)
 and (c) of the Commercial Computer Software - Restricted
 Rights clause in FAR 52.227-19.
  
 Gaussian, Inc.
 340 Quinnipiac St., Bldg. 40, Wallingford CT 06492
  
  
 ---------------------------------------------------------------
 Warning -- This program may not be used in any manner that
 competes with the business of Gaussian, Inc. or will provide
 assistance to any competitor of Gaussian, Inc.  The licensee
 of this program is prohibited from giving any competitor of
 Gaussian, Inc. access to this program.  By using this program,
 the user acknowledges that Gaussian, Inc. is engaged in the
 business of creating and licensing software in the field of
 computational chemistry and represents and warrants to the
 licensee that it is not a competitor of Gaussian, Inc. and that
 it will not use this program in any manner prohibited above.
 ---------------------------------------------------------------
  

 Cite this work as:
 Gaussian 16, Revision A.03,
 M. J. Frisch, G. W. Trucks, H. B. Schlegel, G. E. Scuseria, 
 M. A. Robb, J. R. Cheeseman, G. Scalmani, V. Barone, 
 G. A. Petersson, H. Nakatsuji, X. Li, M. Caricato, A. V. Marenich, 
 J. Bloino, B. G. Janesko, R. Gomperts, B. Mennucci, H. P. Hratchian, 
 J. V. Ortiz, A. F. Izmaylov, J. L. Sonnenberg, D. Williams-Young, 
 F. Ding, F. Lipparini, F. Egidi, J. Goings, B. Peng, A. Petrone, 
 T. Henderson, D. Ranasinghe, V. G. Zakrzewski, J. Gao, N. Rega, 
 G. Zheng, W. Liang, M. Hada, M. Ehara, K. Toyota, R. Fukuda, 
 J. Hasegawa, M. Ishida, T. Nakajima, Y. Honda, O. Kitao, H. Nakai, 
 T. Vreven, K. Throssell, J. A. Montgomery, Jr., J. E. Peralta, 
 F. Ogliaro, M. J. Bearpark, J. J. Heyd, E. N. Brothers, K. N. Kudin, 
 V. N. Staroverov, T. A. Keith, R. Kobayashi, J. Normand, 
 K. Raghavachari, A. P. Rendell, J. C. Burant, S. S. Iyengar, 
 J. Tomasi, M. Cossi, J. M. Millam, M. Klene, C. Adamo, R. Cammi, 
 J. W. Ochterski, R. L. Martin, K. Morokuma, O. Farkas, 
 J. B. Foresman, and D. J. Fox, Gaussian, Inc., Wallingford CT, 2016.
 
 ******************************************
 Gaussian 16:  AM64L-G16RevA.03 25-Dec-2016
                11-May-2022 
 ******************************************
 %chk=/scratch/rdu230/d3tales/high_throughput/runfiles//06IVBN/gaussian/gas_phase
 /opt/freq_opt_cation2.chk
 %mem=48GB
 %nprocshared=16
 Will use up to   16 processors via shared memory.
 %oldchk=/scratch/rdu230/d3tales/high_throughput/runfiles//06IVBN/gaussian/gas_ph
 ase/opt/opt_cation2.chk
 Copying data from "/scratch/rdu230/d3tales/high_throughput/runfiles//06IVBN/gaussian/gas_phase/opt/opt_cation2.chk" to current chk file "/scratch/rdu230/d3tales/high_throughput/runfiles//06IVBN/gaussian/gas_phase/opt/freq_opt_cation2.chk"
 IOpt=  2 FromEx=T IUOpen= 4 IOptOp= 5 NList=   0 IFRang= 0 IUIn= 4 IUOut= 2.
 ----------------------------------------------------------------------
 #P LC-wHPBE/Def2SVP Geom=AllCheck Guess=TCheck SCRF=Check freq iop(3/1
 07=0225700000, 3/108=0225700000)
 ----------------------------------------------------------------------
 1/10=4,29=7,30=1,38=1,40=1/1,3;
 2/12=2,40=1/2;
 3/5=43,7=101,11=2,14=-4,25=1,30=1,70=2,71=2,74=-71,107=225700000,108=225700000,116=-2,140=1/1,2,3;
 4/5=101/1;
 5/5=2,38=6,98=1/2;
 8/6=4,10=90,11=11/1;
 11/6=1,8=1,9=11,15=111,16=1/1,2,10;
 10/6=1/2;
 6/7=2,8=2,9=2,10=2,28=1/1;
 7/8=1,10=1,25=1/1,2,3,16;
 1/10=4,30=1/3;
 99//99;
 Leave Link    1 at Wed May 11 06:31:06 2022, MaxMem=  6442450944 cpu:               4.9 elap:               0.3
 (Enter /mnt/gpfs3_amd/share/apps/amd/gaussian/g16-A.03/g16/l101.exe)
 Structure from the checkpoint file:  "/scratch/rdu230/d3tales/high_throughput/runfiles//06IVBN/gaussian/gas_phase/opt/freq_opt_cation2.chk"
 ----------
 H13 C15 N2
 ----------
 Charge =  3 Multiplicity = 1
 Redundant internal coordinates found in file.  (old form).
 N,0,-0.0147940616,4.2448704518,0.0291955375
 C,0,0.6384313519,3.1498460301,-0.1681123404
 C,0,1.8556032805,2.518264551,-0.5275858202
 C,0,0.7900154451,1.7499809322,-0.2282223391
 N,0,0.2925738664,0.4423740906,-0.0752124819
 C,0,-1.0636100167,0.1741877715,-0.1703544406
 C,0,-1.9193335476,0.9020585878,-1.0501363134
 C,0,-3.2291940774,0.4872625342,-1.1763217782
 C,0,-3.728186702,-0.6143801726,-0.4081276327
 C,0,-2.9026836981,-1.3182830214,0.4819208032
 C,0,-1.5840686898,-0.9153219933,0.6370732118
 C,0,1.1607713322,-0.6143991716,0.1483985971
 C,0,0.7982097198,-1.9025317796,-0.4257885421
 C,0,1.561637406,-3.023578925,-0.1426227887
 C,0,2.7189066757,-2.8775646171,0.639993863
 C,0,3.1014422946,-1.6048887674,1.177015964
 C,0,2.3530246062,-0.4751550289,0.922815131
 H,0,-0.9913121923,4.2606368156,0.3503975072
 H,0,0.4440431283,5.159862853,-0.1022200172
 H,0,2.9114565122,2.6342741002,-0.8225869199
 H,0,-1.528724901,1.6979866768,-1.7001549377
 H,0,-3.8977431352,0.9856236797,-1.8944578209
 H,0,-4.7922923227,-0.8873507507,-0.4965966781
 H,0,-3.3165524845,-2.1236145173,1.1060390926
 H,0,-0.9743940718,-1.3048134002,1.4684676706
 H,0,0.0211888414,-1.9382727775,-1.206497998
 H,0,1.3161682225,-3.9949619113,-0.5961387719
 H,0,3.3693934791,-3.7492623211,0.8190547177
 H,0,3.99056387,-1.5413346583,1.8224938958
 H,0,2.6194598688,0.4784857387,1.3986886294
 Recover connectivity data from disk.
 ITRead=  0  0  0  0  0  0  0  0  0  0  0  0  0  0  0  0  0  0  0  0
 ITRead=  0  0  0  0  0  0  0  0  0  0
 MicOpt= -1 -1 -1 -1 -1 -1 -1 -1 -1 -1 -1 -1 -1 -1 -1 -1 -1 -1 -1 -1
 MicOpt= -1 -1 -1 -1 -1 -1 -1 -1 -1 -1
 NAtoms=     30 NQM=       30 NQMF=       0 NMMI=      0 NMMIF=      0
                NMic=       0 NMicF=      0.
                    Isotopes and Nuclear Properties:
 (Nuclear quadrupole moments (NQMom) in fm**2, nuclear magnetic moments (NMagM)
  in nuclear magnetons)

  Atom         1           2           3           4           5           6           7           8           9          10
 IAtWgt=          14          12          12          12          14          12          12          12          12          12
 AtmWgt=  14.0030740  12.0000000  12.0000000  12.0000000  14.0030740  12.0000000  12.0000000  12.0000000  12.0000000  12.0000000
 NucSpn=           2           0           0           0           2           0           0           0           0           0
 AtZEff=   4.5500000   3.6000000   3.6000000   3.6000000   4.5500000   3.6000000   3.6000000   3.6000000   3.6000000   3.6000000
 NQMom=    2.0440000   0.0000000   0.0000000   0.0000000   2.0440000   0.0000000   0.0000000   0.0000000   0.0000000   0.0000000
 NMagM=    0.4037610   0.0000000   0.0000000   0.0000000   0.4037610   0.0000000   0.0000000   0.0000000   0.0000000   0.0000000
 AtZNuc=   7.0000000   6.0000000   6.0000000   6.0000000   7.0000000   6.0000000   6.0000000   6.0000000   6.0000000   6.0000000

  Atom        11          12          13          14          15          16          17          18          19          20
 IAtWgt=          12          12          12          12          12          12          12           1           1           1
 AtmWgt=  12.0000000  12.0000000  12.0000000  12.0000000  12.0000000  12.0000000  12.0000000   1.0078250   1.0078250   1.0078250
 NucSpn=           0           0           0           0           0           0           0           1           1           1
 AtZEff=   3.6000000   3.6000000   3.6000000   3.6000000   3.6000000   3.6000000   3.6000000   1.0000000   1.0000000   1.0000000
 NQMom=    0.0000000   0.0000000   0.0000000   0.0000000   0.0000000   0.0000000   0.0000000   0.0000000   0.0000000   0.0000000
 NMagM=    0.0000000   0.0000000   0.0000000   0.0000000   0.0000000   0.0000000   0.0000000   2.7928460   2.7928460   2.7928460
 AtZNuc=   6.0000000   6.0000000   6.0000000   6.0000000   6.0000000   6.0000000   6.0000000   1.0000000   1.0000000   1.0000000

  Atom        21          22          23          24          25          26          27          28          29          30
 IAtWgt=           1           1           1           1           1           1           1           1           1           1
 AtmWgt=   1.0078250   1.0078250   1.0078250   1.0078250   1.0078250   1.0078250   1.0078250   1.0078250   1.0078250   1.0078250
 NucSpn=           1           1           1           1           1           1           1           1           1           1
 AtZEff=   1.0000000   1.0000000   1.0000000   1.0000000   1.0000000   1.0000000   1.0000000   1.0000000   1.0000000   1.0000000
 NQMom=    0.0000000   0.0000000   0.0000000   0.0000000   0.0000000   0.0000000   0.0000000   0.0000000   0.0000000   0.0000000
 NMagM=    2.7928460   2.7928460   2.7928460   2.7928460   2.7928460   2.7928460   2.7928460   2.7928460   2.7928460   2.7928460
 AtZNuc=   1.0000000   1.0000000   1.0000000   1.0000000   1.0000000   1.0000000   1.0000000   1.0000000   1.0000000   1.0000000
 Leave Link  101 at Wed May 11 06:31:07 2022, MaxMem=  6442450944 cpu:               2.2 elap:               0.1
 (Enter /mnt/gpfs3_amd/share/apps/amd/gaussian/g16-A.03/g16/l103.exe)

 GradGradGradGradGradGradGradGradGradGradGradGradGradGradGradGradGradGrad
 Berny optimization.
 Initialization pass.
                           ----------------------------
                           !    Initial Parameters    !
                           ! (Angstroms and Degrees)  !
 --------------------------                            --------------------------
 ! Name  Definition              Value          Derivative Info.                !
 --------------------------------------------------------------------------------
 ! R1    R(1,2)                  1.2902         calculate D2E/DX2 analytically  !
 ! R2    R(1,18)                 1.0281         calculate D2E/DX2 analytically  !
 ! R3    R(1,19)                 1.032          calculate D2E/DX2 analytically  !
 ! R4    R(2,3)                  1.4176         calculate D2E/DX2 analytically  !
 ! R5    R(2,4)                  1.4093         calculate D2E/DX2 analytically  !
 ! R6    R(3,4)                  1.3474         calculate D2E/DX2 analytically  !
 ! R7    R(3,20)                 1.1024         calculate D2E/DX2 analytically  !
 ! R8    R(4,5)                  1.4074         calculate D2E/DX2 analytically  !
 ! R9    R(5,6)                  1.3857         calculate D2E/DX2 analytically  !
 ! R10   R(5,12)                 1.3858         calculate D2E/DX2 analytically  !
 ! R11   R(6,7)                  1.4269         calculate D2E/DX2 analytically  !
 ! R12   R(6,11)                 1.4525         calculate D2E/DX2 analytically  !
 ! R13   R(7,8)                  1.3798         calculate D2E/DX2 analytically  !
 ! R14   R(7,21)                 1.0994         calculate D2E/DX2 analytically  !
 ! R15   R(8,9)                  1.4327         calculate D2E/DX2 analytically  !
 ! R16   R(8,22)                 1.1005         calculate D2E/DX2 analytically  !
 ! R17   R(9,10)                 1.4033         calculate D2E/DX2 analytically  !
 ! R18   R(9,23)                 1.1021         calculate D2E/DX2 analytically  !
 ! R19   R(10,11)                1.3875         calculate D2E/DX2 analytically  !
 ! R20   R(10,24)                1.0997         calculate D2E/DX2 analytically  !
 ! R21   R(11,25)                1.1021         calculate D2E/DX2 analytically  !
 ! R22   R(12,13)                1.4562         calculate D2E/DX2 analytically  !
 ! R23   R(12,17)                1.4285         calculate D2E/DX2 analytically  !
 ! R24   R(13,14)                1.3856         calculate D2E/DX2 analytically  !
 ! R25   R(13,26)                1.1021         calculate D2E/DX2 analytically  !
 ! R26   R(14,15)                1.4047         calculate D2E/DX2 analytically  !
 ! R27   R(14,27)                1.0998         calculate D2E/DX2 analytically  !
 ! R28   R(15,16)                1.4333         calculate D2E/DX2 analytically  !
 ! R29   R(15,28)                1.1023         calculate D2E/DX2 analytically  !
 ! R30   R(16,17)                1.3788         calculate D2E/DX2 analytically  !
 ! R31   R(16,29)                1.1006         calculate D2E/DX2 analytically  !
 ! R32   R(17,30)                1.0986         calculate D2E/DX2 analytically  !
 ! A1    A(2,1,18)             122.7974         calculate D2E/DX2 analytically  !
 ! A2    A(2,1,19)             120.5244         calculate D2E/DX2 analytically  !
 ! A3    A(18,1,19)            116.6468         calculate D2E/DX2 analytically  !
 ! A4    A(1,2,3)              148.3854         calculate D2E/DX2 analytically  !
 ! A5    A(1,2,4)              154.6858         calculate D2E/DX2 analytically  !
 ! A6    A(2,3,20)             147.4922         calculate D2E/DX2 analytically  !
 ! A7    A(4,3,20)             151.2751         calculate D2E/DX2 analytically  !
 ! A8    A(2,4,5)              151.6687         calculate D2E/DX2 analytically  !
 ! A9    A(3,4,5)              146.459          calculate D2E/DX2 analytically  !
 ! A10   A(4,5,6)              121.2165         calculate D2E/DX2 analytically  !
 ! A11   A(4,5,12)             120.3054         calculate D2E/DX2 analytically  !
 ! A12   A(6,5,12)             118.4652         calculate D2E/DX2 analytically  !
 ! A13   A(5,6,7)              122.0414         calculate D2E/DX2 analytically  !
 ! A14   A(5,6,11)             117.2372         calculate D2E/DX2 analytically  !
 ! A15   A(7,6,11)             120.695          calculate D2E/DX2 analytically  !
 ! A16   A(6,7,8)              118.1877         calculate D2E/DX2 analytically  !
 ! A17   A(6,7,21)             121.385          calculate D2E/DX2 analytically  !
 ! A18   A(8,7,21)             120.0586         calculate D2E/DX2 analytically  !
 ! A19   A(7,8,9)              120.8478         calculate D2E/DX2 analytically  !
 ! A20   A(7,8,22)             120.0182         calculate D2E/DX2 analytically  !
 ! A21   A(9,8,22)             119.1118         calculate D2E/DX2 analytically  !
 ! A22   A(8,9,10)             121.3924         calculate D2E/DX2 analytically  !
 ! A23   A(8,9,23)             118.9254         calculate D2E/DX2 analytically  !
 ! A24   A(10,9,23)            119.6475         calculate D2E/DX2 analytically  !
 ! A25   A(9,10,11)            118.9673         calculate D2E/DX2 analytically  !
 ! A26   A(9,10,24)            120.3923         calculate D2E/DX2 analytically  !
 ! A27   A(11,10,24)           120.4556         calculate D2E/DX2 analytically  !
 ! A28   A(6,11,10)            119.7487         calculate D2E/DX2 analytically  !
 ! A29   A(6,11,25)            119.0915         calculate D2E/DX2 analytically  !
 ! A30   A(10,11,25)           120.4936         calculate D2E/DX2 analytically  !
 ! A31   A(5,12,13)            117.0617         calculate D2E/DX2 analytically  !
 ! A32   A(5,12,17)            122.4131         calculate D2E/DX2 analytically  !
 ! A33   A(13,12,17)           120.5176         calculate D2E/DX2 analytically  !
 ! A34   A(12,13,14)           119.865          calculate D2E/DX2 analytically  !
 ! A35   A(12,13,26)           118.9189         calculate D2E/DX2 analytically  !
 ! A36   A(14,13,26)           120.4655         calculate D2E/DX2 analytically  !
 ! A37   A(13,14,15)           118.928          calculate D2E/DX2 analytically  !
 ! A38   A(13,14,27)           120.4895         calculate D2E/DX2 analytically  !
 ! A39   A(15,14,27)           120.3616         calculate D2E/DX2 analytically  !
 ! A40   A(14,15,16)           121.3945         calculate D2E/DX2 analytically  !
 ! A41   A(14,15,28)           119.6361         calculate D2E/DX2 analytically  !
 ! A42   A(16,15,28)           118.9345         calculate D2E/DX2 analytically  !
 ! A43   A(15,16,17)           120.9031         calculate D2E/DX2 analytically  !
 ! A44   A(15,16,29)           119.1195         calculate D2E/DX2 analytically  !
 ! A45   A(17,16,29)           119.9566         calculate D2E/DX2 analytically  !
 ! A46   A(12,17,16)           118.2372         calculate D2E/DX2 analytically  !
 ! A47   A(12,17,30)           121.4577         calculate D2E/DX2 analytically  !
 ! A48   A(16,17,30)           119.9841         calculate D2E/DX2 analytically  !
 ! D1    D(18,1,2,3)          -177.7308         calculate D2E/DX2 analytically  !
 ! D2    D(18,1,2,4)             2.9696         calculate D2E/DX2 analytically  !
 ! D3    D(19,1,2,3)             0.1606         calculate D2E/DX2 analytically  !
 ! D4    D(19,1,2,4)          -179.139          calculate D2E/DX2 analytically  !
 ! D5    D(1,2,3,20)             1.2046         calculate D2E/DX2 analytically  !
 ! D6    D(1,2,4,5)             -2.4392         calculate D2E/DX2 analytically  !
 ! D7    D(2,3,4,20)          -179.0526         calculate D2E/DX2 analytically  !
 ! D8    D(20,3,4,5)             0.7712         calculate D2E/DX2 analytically  !
 ! D9    D(2,4,5,6)             25.5089         calculate D2E/DX2 analytically  !
 ! D10   D(2,4,5,12)          -155.8186         calculate D2E/DX2 analytically  !
 ! D11   D(3,4,5,6)           -157.6851         calculate D2E/DX2 analytically  !
 ! D12   D(3,4,5,12)            20.9873         calculate D2E/DX2 analytically  !
 ! D13   D(4,5,6,7)             33.578          calculate D2E/DX2 analytically  !
 ! D14   D(4,5,6,11)          -148.277          calculate D2E/DX2 analytically  !
 ! D15   D(12,5,6,7)          -145.1183         calculate D2E/DX2 analytically  !
 ! D16   D(12,5,6,11)           33.0268         calculate D2E/DX2 analytically  !
 ! D17   D(4,5,12,13)         -146.0098         calculate D2E/DX2 analytically  !
 ! D18   D(4,5,12,17)           34.9897         calculate D2E/DX2 analytically  !
 ! D19   D(6,5,12,13)           32.6988         calculate D2E/DX2 analytically  !
 ! D20   D(6,5,12,17)         -146.3018         calculate D2E/DX2 analytically  !
 ! D21   D(5,6,7,8)            173.9482         calculate D2E/DX2 analytically  !
 ! D22   D(5,6,7,21)             0.9172         calculate D2E/DX2 analytically  !
 ! D23   D(11,6,7,8)            -4.1338         calculate D2E/DX2 analytically  !
 ! D24   D(11,6,7,21)         -177.1648         calculate D2E/DX2 analytically  !
 ! D25   D(5,6,11,10)         -173.4324         calculate D2E/DX2 analytically  !
 ! D26   D(5,6,11,25)           15.8732         calculate D2E/DX2 analytically  !
 ! D27   D(7,6,11,10)            4.7391         calculate D2E/DX2 analytically  !
 ! D28   D(7,6,11,25)         -165.9553         calculate D2E/DX2 analytically  !
 ! D29   D(6,7,8,9)              2.2133         calculate D2E/DX2 analytically  !
 ! D30   D(6,7,8,22)          -176.0567         calculate D2E/DX2 analytically  !
 ! D31   D(21,7,8,9)           175.3399         calculate D2E/DX2 analytically  !
 ! D32   D(21,7,8,22)           -2.9301         calculate D2E/DX2 analytically  !
 ! D33   D(7,8,9,10)            -0.8536         calculate D2E/DX2 analytically  !
 ! D34   D(7,8,9,23)           176.9963         calculate D2E/DX2 analytically  !
 ! D35   D(22,8,9,10)          177.4319         calculate D2E/DX2 analytically  !
 ! D36   D(22,8,9,23)           -4.7182         calculate D2E/DX2 analytically  !
 ! D37   D(8,9,10,11)            1.3805         calculate D2E/DX2 analytically  !
 ! D38   D(8,9,10,24)          176.4628         calculate D2E/DX2 analytically  !
 ! D39   D(23,9,10,11)        -176.4542         calculate D2E/DX2 analytically  !
 ! D40   D(23,9,10,24)          -1.3719         calculate D2E/DX2 analytically  !
 ! D41   D(9,10,11,6)           -3.266          calculate D2E/DX2 analytically  !
 ! D42   D(9,10,11,25)         167.2959         calculate D2E/DX2 analytically  !
 ! D43   D(24,10,11,6)        -178.3451         calculate D2E/DX2 analytically  !
 ! D44   D(24,10,11,25)         -7.7832         calculate D2E/DX2 analytically  !
 ! D45   D(5,12,13,14)        -174.4188         calculate D2E/DX2 analytically  !
 ! D46   D(5,12,13,26)          15.4571         calculate D2E/DX2 analytically  !
 ! D47   D(17,12,13,14)          4.6018         calculate D2E/DX2 analytically  !
 ! D48   D(17,12,13,26)       -165.5223         calculate D2E/DX2 analytically  !
 ! D49   D(5,12,17,16)         175.0944         calculate D2E/DX2 analytically  !
 ! D50   D(5,12,17,30)           1.6035         calculate D2E/DX2 analytically  !
 ! D51   D(13,12,17,16)         -3.8725         calculate D2E/DX2 analytically  !
 ! D52   D(13,12,17,30)       -177.3634         calculate D2E/DX2 analytically  !
 ! D53   D(12,13,14,15)         -3.4206         calculate D2E/DX2 analytically  !
 ! D54   D(12,13,14,27)       -178.0406         calculate D2E/DX2 analytically  !
 ! D55   D(26,13,14,15)        166.5487         calculate D2E/DX2 analytically  !
 ! D56   D(26,13,14,27)         -8.0713         calculate D2E/DX2 analytically  !
 ! D57   D(13,14,15,16)          1.6993         calculate D2E/DX2 analytically  !
 ! D58   D(13,14,15,28)       -176.1291         calculate D2E/DX2 analytically  !
 ! D59   D(27,14,15,16)        176.3264         calculate D2E/DX2 analytically  !
 ! D60   D(27,14,15,28)         -1.5021         calculate D2E/DX2 analytically  !
 ! D61   D(14,15,16,17)         -1.0521         calculate D2E/DX2 analytically  !
 ! D62   D(14,15,16,29)        177.2842         calculate D2E/DX2 analytically  !
 ! D63   D(28,15,16,17)        176.7912         calculate D2E/DX2 analytically  !
 ! D64   D(28,15,16,29)         -4.8725         calculate D2E/DX2 analytically  !
 ! D65   D(15,16,17,12)          2.126          calculate D2E/DX2 analytically  !
 ! D66   D(15,16,17,30)        175.7161         calculate D2E/DX2 analytically  !
 ! D67   D(29,16,17,12)       -176.1964         calculate D2E/DX2 analytically  !
 ! D68   D(29,16,17,30)         -2.6064         calculate D2E/DX2 analytically  !
 --------------------------------------------------------------------------------
 Trust Radius=3.00D-01 FncErr=1.00D-07 GrdErr=1.00D-07 EigMax=2.50D+02 EigMin=1.00D-04
 Number of steps in this run=      2 maximum allowed number of steps=      2.
 GradGradGradGradGradGradGradGradGradGradGradGradGradGradGradGradGradGrad

 Leave Link  103 at Wed May 11 06:31:07 2022, MaxMem=  6442450944 cpu:               0.1 elap:               0.0
 (Enter /mnt/gpfs3_amd/share/apps/amd/gaussian/g16-A.03/g16/l202.exe)
                          Input orientation:                          
 ---------------------------------------------------------------------
 Center     Atomic      Atomic             Coordinates (Angstroms)
 Number     Number       Type             X           Y           Z
 ---------------------------------------------------------------------
      1          7           0       -0.014794    4.244870    0.029196
      2          6           0        0.638431    3.149846   -0.168112
      3          6           0        1.855603    2.518265   -0.527586
      4          6           0        0.790015    1.749981   -0.228222
      5          7           0        0.292574    0.442374   -0.075212
      6          6           0       -1.063610    0.174188   -0.170354
      7          6           0       -1.919334    0.902059   -1.050136
      8          6           0       -3.229194    0.487263   -1.176322
      9          6           0       -3.728187   -0.614380   -0.408128
     10          6           0       -2.902684   -1.318283    0.481921
     11          6           0       -1.584069   -0.915322    0.637073
     12          6           0        1.160771   -0.614399    0.148399
     13          6           0        0.798210   -1.902532   -0.425789
     14          6           0        1.561637   -3.023579   -0.142623
     15          6           0        2.718907   -2.877565    0.639994
     16          6           0        3.101442   -1.604889    1.177016
     17          6           0        2.353025   -0.475155    0.922815
     18          1           0       -0.991312    4.260637    0.350398
     19          1           0        0.444043    5.159863   -0.102220
     20          1           0        2.911457    2.634274   -0.822587
     21          1           0       -1.528725    1.697987   -1.700155
     22          1           0       -3.897743    0.985624   -1.894458
     23          1           0       -4.792292   -0.887351   -0.496597
     24          1           0       -3.316552   -2.123615    1.106039
     25          1           0       -0.974394   -1.304813    1.468468
     26          1           0        0.021189   -1.938273   -1.206498
     27          1           0        1.316168   -3.994962   -0.596139
     28          1           0        3.369393   -3.749262    0.819055
     29          1           0        3.990564   -1.541335    1.822494
     30          1           0        2.619460    0.478486    1.398689
 ---------------------------------------------------------------------
                    Distance matrix (angstroms):
                    1          2          3          4          5
     1  N    0.000000
     2  C    1.290237   0.000000
     3  C    2.605678   1.417612   0.000000
     4  C    2.634095   1.409331   1.347351   0.000000
     5  N    3.816327   2.731053   2.637617   1.407372   0.000000
     6  C    4.208360   3.428045   3.760866   2.433598   1.385717
     7  C    3.995825   3.517481   4.139484   2.955518   2.460553
     8  C    5.089721   4.802537   5.513709   4.318263   3.690163
     9  C    6.131301   5.770126   6.403627   5.102619   4.170621
    10  C    6.284389   5.738137   6.195119   4.853305   3.690526
    11  C    5.427681   4.702491   4.997729   3.672717   2.423319
    12  C    5.000866   3.813471   3.279227   2.422725   1.385835
    13  C    6.217599   5.061467   4.546634   3.657861   2.424284
    14  C    7.439423   6.242126   5.562971   4.836280   3.691598
    15  C    7.653449   6.427371   5.587800   5.088084   4.173800
    16  C    6.726671   5.521168   4.632297   4.309587   3.694469
    17  C    5.355722   4.155789   3.363280   2.952815   2.466450
    18  H    1.028108   2.039307   3.451325   3.132303   4.050758
    19  H    1.031995   2.020469   3.025141   3.429704   4.719997
    20  H    3.447100   2.420908   1.102411   2.373975   3.495932
    21  H    3.430635   3.025164   3.674432   2.746970   2.744837
    22  H    5.422216   5.314227   6.108872   5.033454   4.600384
    23  H    7.031404   6.774926   7.469518   6.179782   5.272722
    24  H    7.253882   6.713773   7.139115   5.800767   4.583170
    25  H    5.813031   5.012344   5.158395   3.914545   2.653454
    26  H    6.305513   5.229549   4.866901   3.892471   2.649705
    27  H    8.370026   7.189632   6.535886   5.780706   4.583564
    28  H    8.716809   7.485342   6.586873   6.163737   5.276016
    29  H    7.262161   6.099712   5.153763   5.028092   4.605597
    30  H    4.795879   3.676344   2.907698   2.758696   2.754648
                    6          7          8          9         10
     6  C    0.000000
     7  C    1.426911   0.000000
     8  C    2.408265   1.379751   0.000000
     9  C    2.788968   2.446163   1.432736   0.000000
    10  C    2.456649   2.871253   2.473130   1.403254   0.000000
    11  C    1.452532   2.502389   2.821716   2.404216   1.387514
    12  C    2.381459   3.636369   4.715966   4.920532   4.137434
    13  C    2.800783   3.954817   4.742826   4.706157   3.855113
    14  C    4.137439   5.324600   6.028815   5.818674   4.819570
    15  C    4.927199   6.217344   7.071136   6.912711   5.835977
    16  C    4.725270   6.037647   7.070520   7.080792   6.051019
    17  C    3.645553   4.903295   6.041009   6.226710   5.341135
    18  H    4.120131   3.755365   4.645142   5.641953   5.898727
    19  H    5.209090   4.961148   6.039831   7.130425   7.314928
    20  H    4.720020   5.137011   6.514781   7.403404   7.150432
    21  H    2.208752   1.099364   2.152173   3.442965   3.968262
    22  H    3.415153   2.152665   1.100473   2.190420   3.456198
    23  H    3.890549   3.429619   2.189718   1.102116   2.171133
    24  H    3.461911   3.969384   3.468931   2.177138   1.099714
    25  H    2.209331   3.479448   3.910316   3.403187   2.166046
    26  H    2.590921   3.443481   4.055752   4.055602   3.432809
    27  H    4.819382   5.886883   6.409935   6.075294   5.111314
    28  H    6.001992   7.286926   8.091417   7.855514   6.735152
    29  H    5.697292   7.010639   8.076695   8.087894   7.025934
    30  H    4.014909   5.174631   6.390423   6.689661   5.879023
                   11         12         13         14         15
    11  C    0.000000
    12  C    2.804194   0.000000
    13  C    2.789177   1.456169   0.000000
    14  C    3.866282   2.459580   1.385551   0.000000
    15  C    4.729271   2.791302   2.403260   1.404664   0.000000
    16  C    4.766661   2.409425   2.821782   2.474899   1.433328
    17  C    3.971914   1.428488   2.504713   2.873311   2.446514
    18  H    5.217671   5.332752   6.464480   7.734366   8.050063
    19  H    6.447299   5.823969   7.078669   8.259502   8.386067
    20  H    5.911006   3.815965   5.020545   5.856250   5.705838
    21  H    3.506434   3.999709   4.472401   5.854010   6.667409
    22  H    3.921139   5.685236   5.705296   6.996247   8.070175
    23  H    3.402747   5.994121   5.682369   6.712763   7.853082
    24  H    2.163654   4.820916   4.396208   5.115255   6.100197
    25  H    1.102100   2.603495   2.662254   3.461390   4.098827
    26  H    2.649912   2.210664   1.102064   2.163955   3.401394
    27  H    4.406401   3.465067   2.162305   1.099780   2.178136
    28  H    5.709739   3.892963   3.401622   2.172423   1.102294
    29  H    5.733554   3.416069   3.921270   3.458094   2.191102
    30  H    4.493597   2.210293   3.509261   3.969772   3.442177
                   16         17         18         19         20
    16  C    0.000000
    17  C    1.378784   0.000000
    18  H    7.199884   5.825803   0.000000
    19  H    7.379707   6.037246   1.753201   0.000000
    20  H    4.690950   3.609269   4.387773   3.603562   0.000000
    21  H    6.373817   5.164349   3.325771   4.292994   4.621901
    22  H    8.070521   7.010207   4.920612   6.283908   7.087465
    23  H    8.101042   7.296588   6.454969   8.008966   8.476783
    24  H    6.439314   5.907207   6.836403   8.285591   8.071258
    25  H    4.097247   3.472432   5.676672   6.802284   5.988754
    26  H    3.908995   3.480251   6.471133   7.195955   5.423027
    27  H    3.470408   3.971314   8.624112   9.209526   6.822243
    28  H    2.190496   3.429803   9.132025   9.422257   6.607135
    29  H    1.100554   2.151208   7.787749   7.822300   5.059312
    30  H    2.149859   1.098578   5.333034   5.375914   3.109140
                   21         22         23         24         25
    21  H    0.000000
    22  H    2.481423   0.000000
    23  H    4.333981   2.502452   0.000000
    24  H    5.067118   4.359831   2.504915   0.000000
    25  H    4.400484   5.010124   4.314174   2.507488   0.000000
    26  H    3.983505   4.937660   4.977750   4.064812   2.923679
    27  H    6.459252   7.326441   6.854228   5.278395   4.092209
    28  H    7.746645   9.088100   8.748405   6.886724   5.026486
    29  H    7.305122   9.078912   9.107384   7.365209   4.983180
    30  H    5.319535   7.319559   7.771209   6.487897   4.012582
                   26         27         28         29         30
    26  H    0.000000
    27  H    2.505889   0.000000
    28  H    4.311963   2.505768   0.000000
    29  H    5.008821   4.361475   2.503535   0.000000
    30  H    4.402128   5.068495   4.332693   2.477743   0.000000
 Stoichiometry    C15H13N2(3+)
 Framework group  C1[X(C15H13N2)]
 Deg. of freedom    84
 Full point group                 C1      NOp   1
 RotChk:  IX=0 Diff= 2.48D-15
 Largest Abelian subgroup         C1      NOp   1
 Largest concise Abelian subgroup C1      NOp   1
                         Standard orientation:                         
 ---------------------------------------------------------------------
 Center     Atomic      Atomic             Coordinates (Angstroms)
 Number     Number       Type             X           Y           Z
 ---------------------------------------------------------------------
      1          7           0       -2.706212    3.168114    0.457087
      2          6           0       -1.554178    2.747790    0.056017
      3          6           0       -0.305319    3.040756   -0.547428
      4          6           0       -0.558100    1.774816   -0.161614
      5          7           0       -0.067993    0.459461   -0.059972
      6          6           0       -0.928772   -0.622633    0.031365
      7          6           0       -2.192779   -0.642440   -0.630427
      8          6           0       -2.930932   -1.807466   -0.590944
      9          6           0       -2.462186   -2.949889    0.135608
     10          6           0       -1.234233   -2.930991    0.814501
     11          6           0       -0.476736   -1.768574    0.800995
     12          6           0        1.296607    0.218381   -0.076937
     13          6           0        1.743683   -1.014767   -0.709310
     14          6           0        3.081686   -1.370898   -0.657643
     15          6           0        3.995951   -0.491819   -0.053970
     16          6           0        3.566965    0.741403    0.537270
     17          6           0        2.239886    1.114632    0.512584
     18          1           0       -3.388854    2.559012    0.926132
     19          1           0       -2.970695    4.159303    0.344817
     20          1           0        0.357311    3.802376   -0.990335
     21          1           0       -2.526112    0.199791   -1.253434
     22          1           0       -3.879155   -1.877463   -1.145032
     23          1           0       -3.100159   -3.847074    0.187659
     24          1           0       -0.916986   -3.796106    1.414752
     25          1           0        0.378428   -1.650340    1.486077
     26          1           0        1.043893   -1.564327   -1.359561
     27          1           0        3.436020   -2.283352   -1.159032
     28          1           0        5.071459   -0.733172   -0.063059
     29          1           0        4.308421    1.380850    1.039832
     30          1           0        1.916608    2.027663    1.030986
 ---------------------------------------------------------------------
 Rotational constants (GHZ):           0.5681277           0.4375834           0.2637707
 Leave Link  202 at Wed May 11 06:31:07 2022, MaxMem=  6442450944 cpu:               0.1 elap:               0.0
 (Enter /mnt/gpfs3_amd/share/apps/amd/gaussian/g16-A.03/g16/l301.exe)
 Standard basis: def2SVP (5D, 7F)
 Ernie: Thresh=  0.10000D-02 Tol=  0.10000D-05 Strict=F.
 There are   320 symmetry adapted cartesian basis functions of A   symmetry.
 There are   303 symmetry adapted basis functions of A   symmetry.
   303 basis functions,   516 primitive gaussians,   320 cartesian basis functions
    57 alpha electrons       57 beta electrons
       nuclear repulsion energy      1082.4967494615 Hartrees.
 IExCor=33909 DFT=T Ex+Corr=LC-wHPBE ExCW=0 ScaHFX=  1.000000
 ScaDFX=  1.000000  1.000000  1.000000  1.000000 ScalE2=  1.000000  1.000000
 IRadAn=      5 IRanWt=     -1 IRanGd=            0 ICorTp=0 IEmpDi=  4
 HFx  wShort=  0.000000 wLong=  0.225700 cFull=  0.000000 cShort=  0.000000 cLong=  1.000000
 DFx  wShort=  0.000000 wLong=  0.225700 cFull=  0.000000 cShort=  1.000000 cLong=  0.000000
 NAtoms=   30 NActive=   30 NUniq=   30 SFac= 1.00D+00 NAtFMM=   60 NAOKFM=F Big=F
 Integral buffers will be    131072 words long.
 Raffenetti 2 integral format.
 Two-electron integral symmetry is turned on.
 Leave Link  301 at Wed May 11 06:31:07 2022, MaxMem=  6442450944 cpu:               0.4 elap:               0.0
 (Enter /mnt/gpfs3_amd/share/apps/amd/gaussian/g16-A.03/g16/l302.exe)
 NPDir=0 NMtPBC=     1 NCelOv=     1 NCel=       1 NClECP=     1 NCelD=      1
         NCelK=      1 NCelE2=     1 NClLst=     1 CellRange=     0.0.
 One-electron integrals computed using PRISM.
 One-electron integral symmetry used in STVInt
   1 Symmetry operations used in ECPInt.
 ECPInt:  NShTT=   10011 NPrTT=   36575 LenC2=    9396 LenP2D=   24551.
 LDataN:  DoStor=T MaxTD1= 4 Len=   56
 NBasis=   303 RedAO= T EigKep=  3.13D-04  NBF=   303
 NBsUse=   303 1.00D-06 EigRej= -1.00D+00 NBFU=   303
 Precomputing XC quadrature grid using
 IXCGrd= 4 IRadAn=           5 IRanWt=          -1 IRanGd=           0 AccXCQ= 0.00D+00.
 Generated NRdTot=       0 NPtTot=           0 NUsed=           0 NTot=          32
 NSgBfM=   319   319   319   319   319 MxSgAt=    30 MxSgA2=    30.
 Leave Link  302 at Wed May 11 06:31:07 2022, MaxMem=  6442450944 cpu:               9.2 elap:               0.6
 (Enter /mnt/gpfs3_amd/share/apps/amd/gaussian/g16-A.03/g16/l303.exe)
 DipDrv:  MaxL=1.
 Leave Link  303 at Wed May 11 06:31:07 2022, MaxMem=  6442450944 cpu:               0.4 elap:               0.0
 (Enter /mnt/gpfs3_amd/share/apps/amd/gaussian/g16-A.03/g16/l401.exe)
 Initial guess from the checkpoint file:  "/scratch/rdu230/d3tales/high_throughput/runfiles//06IVBN/gaussian/gas_phase/opt/freq_opt_cation2.chk"
 B after Tr=    -0.000000    0.000000   -0.000000
         Rot=    1.000000    0.000000    0.000000    0.000000 Ang=   0.00 deg.
 Guess basis will be translated and rotated to current coordinates.
 JPrj=2 DoOrth=T DoCkMO=T.
 Leave Link  401 at Wed May 11 06:31:08 2022, MaxMem=  6442450944 cpu:               6.3 elap:               0.4
 (Enter /mnt/gpfs3_amd/share/apps/amd/gaussian/g16-A.03/g16/l502.exe)
 Integral symmetry usage will be decided dynamically.
 Closed shell SCF:
 Using DIIS extrapolation, IDIIS=  1040.
 NGot=  6442450944 LenX=  6442237618 LenY=  6442134777
 Requested convergence on RMS density matrix=1.00D-08 within 128 cycles.
 Requested convergence on MAX density matrix=1.00D-06.
 Requested convergence on             energy=1.00D-06.
 No special actions if energy rises.
 Fock matrices will be formed incrementally for  20 cycles.

 Cycle   1  Pass 1  IDiag  1:
 FoFJK:  IHMeth= 1 ICntrl=       0 DoSepK=T KAlg= 0 I1Cent=           0 FoldK=F
 IRaf=         1 NMat=       1 IRICut=       1 DoRegI=T DoRafI=F ISym2E= 0 IDoP0=0 IntGTp=1.
 FoFCou: FMM=F IPFlag=           0 FMFlag=      100000 FMFlg1=           0
         NFxFlg=           0 DoJE=T BraDBF=F KetDBF=F FulRan=T
         wScrn=  0.000000 ICntrl=       500 IOpCl=  0 I1Cent=           0 NGrid=           0
         NMat0=    1 NMatS0=      1 NMatT0=    0 NMatD0=    1 NMtDS0=    0 NMtDT0=    0
 Symmetry not used in FoFCou.
 E= -686.554247387010    
 DIIS: error= 2.08D-08 at cycle   1 NSaved=   1.
 NSaved= 1 IEnMin= 1 EnMin= -686.554247387010     IErMin= 1 ErrMin= 2.08D-08
 ErrMax= 2.08D-08  0.00D+00 EMaxC= 1.00D-01 BMatC= 3.18D-14 BMatP= 3.18D-14
 IDIUse=1 WtCom= 1.00D+00 WtEn= 0.00D+00
 Coeff-Com:  0.100D+01
 Coeff:      0.100D+01
 Gap=     0.182 Goal=   None    Shift=    0.000
 RMSDP=1.86D-09 MaxDP=5.45D-08              OVMax= 4.17D-07

 SCF Done:  E(RLC-wHPBE) =  -686.554247387     A.U. after    1 cycles
            NFock=  1  Conv=0.19D-08     -V/T= 2.0113
 KE= 6.788629163206D+02 PE=-3.703923214833D+03 EE= 1.256009301664D+03
 Leave Link  502 at Wed May 11 06:31:15 2022, MaxMem=  6442450944 cpu:             116.8 elap:               7.4
 (Enter /mnt/gpfs3_amd/share/apps/amd/gaussian/g16-A.03/g16/l801.exe)
 DoSCS=F DFT=T ScalE2(SS,OS)=  1.000000  1.000000
 Range of M.O.s used for correlation:     1   303
 NBasis=   303 NAE=    57 NBE=    57 NFC=     0 NFV=     0
 NROrb=    303 NOA=    57 NOB=    57 NVA=   246 NVB=   246

 **** Warning!!: The largest alpha MO coefficient is  0.12268043D+02

 Leave Link  801 at Wed May 11 06:31:15 2022, MaxMem=  6442450944 cpu:               0.1 elap:               0.0
 (Enter /mnt/gpfs3_amd/share/apps/amd/gaussian/g16-A.03/g16/l1101.exe)
 Using compressed storage, NAtomX=    30.
 Will process     31 centers per pass.
   1 Symmetry operations used in ECPInt.
 ECPInt:  NShTT=   10011 NPrTT=   36575 LenC2=    9396 LenP2D=   24551.
 LDataN:  DoStor=T MaxTD1= 5 Len=  102
 Leave Link 1101 at Wed May 11 06:31:16 2022, MaxMem=  6442450944 cpu:               7.5 elap:               0.5
 (Enter /mnt/gpfs3_amd/share/apps/amd/gaussian/g16-A.03/g16/l1102.exe)
 Symmetrizing basis deriv contribution to polar:
 IMax=3 JMax=2 DiffMx= 0.00D+00
 Leave Link 1102 at Wed May 11 06:31:16 2022, MaxMem=  6442450944 cpu:               0.6 elap:               0.1
 (Enter /mnt/gpfs3_amd/share/apps/amd/gaussian/g16-A.03/g16/l1110.exe)
 Forming Gx(P) for the SCF density, NAtomX=    30.
 Integral derivatives from FoFJK, PRISM(SPDF).
 Do as many integral derivatives as possible in FoFJK.
 G2DrvN: MDV=    6442448708.
 G2DrvN: will do    31 centers at a time, making    1 passes.
 Calling FoFCou, ICntrl=  3107 FMM=F I1Cent=   0 AccDes= 0.00D+00.
 FoFJK:  IHMeth= 1 ICntrl=    3107 DoSepK=T KAlg= 0 I1Cent=           0 FoldK=F
 IRaf=         1 NMat=       1 IRICut=       1 DoRegI=T DoRafI=F ISym2E= 0 IDoP0=0 IntGTp=1.
 FoFCou: FMM=F IPFlag=           0 FMFlag=      100000 FMFlg1=           0
         NFxFlg=           0 DoJE=F BraDBF=F KetDBF=F FulRan=T
         wScrn=  0.000000 ICntrl=      3507 IOpCl=  0 I1Cent=           0 NGrid=           0
         NMat0=    1 NMatS0=      1 NMatT0=    0 NMatD0=    1 NMtDS0=    0 NMtDT0=    0
 Symmetry not used in FoFCou.
 End of G2Drv F.D. properties file   721 does not exist.
 End of G2Drv F.D. properties file   722 does not exist.
 End of G2Drv F.D. properties file   788 does not exist.
 Leave Link 1110 at Wed May 11 06:34:48 2022, MaxMem=  6442450944 cpu:            3382.6 elap:             212.6
 (Enter /mnt/gpfs3_amd/share/apps/amd/gaussian/g16-A.03/g16/l1002.exe)
 Minotr:  Closed shell wavefunction.
          IDoAtm=111111111111111111111111111111
          Direct CPHF calculation.
          Differentiating once with respect to electric field.
                with respect to dipole field.
          Differentiating once with respect to nuclear coordinates.
          Requested convergence is 1.0D-08 RMS, and 1.0D-07 maximum.
          Secondary convergence is 1.0D-12 RMS, and 1.0D-12 maximum.
          NewPWx=T KeepS1=F KeepF1=F KeepIn=T MapXYZ=F SortEE=F KeepMc=T.
         9039 words used for storage of precomputed grid.
 Keep R1 ints in memory in canonical form, NReq=2139650006.
 FoFCou: FMM=F IPFlag=           0 FMFlag=           0 FMFlg1=           0
         NFxFlg=           0 DoJE=F BraDBF=F KetDBF=F FulRan=T
         wScrn=  0.000000 ICntrl=       600 IOpCl=  0 I1Cent=           0 NGrid=           0
         NMat0=    1 NMatS0=  46056 NMatT0=    0 NMatD0=    1 NMtDS0=    0 NMtDT0=    0
 Symmetry not used in FoFCou.
 Two-electron integral symmetry not used.
          MDV=    6442450944 using IRadAn=       1.
          Solving linear equations simultaneously, MaxMat=       0.
          There are    93 degrees of freedom in the 1st order CPHF.  IDoFFX=6 NUNeed=     3.
     90 vectors produced by pass  0 Test12= 1.51D-14 1.08D-09 XBig12= 4.23D+02 1.80D+01.
 AX will form    90 AO Fock derivatives at one time.
     90 vectors produced by pass  1 Test12= 1.51D-14 1.08D-09 XBig12= 5.06D+01 1.21D+00.
     90 vectors produced by pass  2 Test12= 1.51D-14 1.08D-09 XBig12= 1.75D+00 2.56D-01.
     90 vectors produced by pass  3 Test12= 1.51D-14 1.08D-09 XBig12= 1.86D-02 2.79D-02.
     90 vectors produced by pass  4 Test12= 1.51D-14 1.08D-09 XBig12= 1.05D-04 1.47D-03.
     90 vectors produced by pass  5 Test12= 1.51D-14 1.08D-09 XBig12= 6.59D-07 9.27D-05.
     86 vectors produced by pass  6 Test12= 1.51D-14 1.08D-09 XBig12= 3.43D-09 5.38D-06.
     37 vectors produced by pass  7 Test12= 1.51D-14 1.08D-09 XBig12= 1.66D-11 3.14D-07.
      3 vectors produced by pass  8 Test12= 1.51D-14 1.08D-09 XBig12= 7.08D-14 1.88D-08.
      1 vectors produced by pass  9 Test12= 1.51D-14 1.08D-09 XBig12= 3.11D-16 1.20D-09.
 InvSVY:  IOpt=1 It=  1 EMax= 3.55D-15
 Solved reduced A of dimension   667 with    93 vectors.
 FullF1:  Do perturbations      1 to       3.
 Isotropic polarizability for W=    0.000000      219.55 Bohr**3.
 End of Minotr F.D. properties file   721 does not exist.
 End of Minotr F.D. properties file   722 does not exist.
 End of Minotr F.D. properties file   788 does not exist.
 Leave Link 1002 at Wed May 11 06:39:30 2022, MaxMem=  6442450944 cpu:            4454.0 elap:             282.1
 (Enter /mnt/gpfs3_amd/share/apps/amd/gaussian/g16-A.03/g16/l601.exe)
 Copying SCF densities to generalized density rwf, IOpCl= 0 IROHF=0.

 **********************************************************************

            Population analysis using the SCF density.

 **********************************************************************

 Orbital symmetries:
       Occupied  (A) (A) (A) (A) (A) (A) (A) (A) (A) (A) (A) (A)
                 (A) (A) (A) (A) (A) (A) (A) (A) (A) (A) (A) (A)
                 (A) (A) (A) (A) (A) (A) (A) (A) (A) (A) (A) (A)
                 (A) (A) (A) (A) (A) (A) (A) (A) (A) (A) (A) (A)
                 (A) (A) (A) (A) (A) (A) (A) (A) (A)
       Virtual   (A) (A) (A) (A) (A) (A) (A) (A) (A) (A) (A) (A)
                 (A) (A) (A) (A) (A) (A) (A) (A) (A) (A) (A) (A)
                 (A) (A) (A) (A) (A) (A) (A) (A) (A) (A) (A) (A)
                 (A) (A) (A) (A) (A) (A) (A) (A) (A) (A) (A) (A)
                 (A) (A) (A) (A) (A) (A) (A) (A) (A) (A) (A) (A)
                 (A) (A) (A) (A) (A) (A) (A) (A) (A) (A) (A) (A)
                 (A) (A) (A) (A) (A) (A) (A) (A) (A) (A) (A) (A)
                 (A) (A) (A) (A) (A) (A) (A) (A) (A) (A) (A) (A)
                 (A) (A) (A) (A) (A) (A) (A) (A) (A) (A) (A) (A)
                 (A) (A) (A) (A) (A) (A) (A) (A) (A) (A) (A) (A)
                 (A) (A) (A) (A) (A) (A) (A) (A) (A) (A) (A) (A)
                 (A) (A) (A) (A) (A) (A) (A) (A) (A) (A) (A) (A)
                 (A) (A) (A) (A) (A) (A) (A) (A) (A) (A) (A) (A)
                 (A) (A) (A) (A) (A) (A) (A) (A) (A) (A) (A) (A)
                 (A) (A) (A) (A) (A) (A) (A) (A) (A) (A) (A) (A)
                 (A) (A) (A) (A) (A) (A) (A) (A) (A) (A) (A) (A)
                 (A) (A) (A) (A) (A) (A) (A) (A) (A) (A) (A) (A)
                 (A) (A) (A) (A) (A) (A) (A) (A) (A) (A) (A) (A)
                 (A) (A) (A) (A) (A) (A) (A) (A) (A) (A) (A) (A)
                 (A) (A) (A) (A) (A) (A) (A) (A) (A) (A) (A) (A)
                 (A) (A) (A) (A) (A) (A)
 The electronic state is 1-A.
 Alpha  occ. eigenvalues --  -14.71042 -14.61939 -10.58939 -10.58845 -10.55067
 Alpha  occ. eigenvalues --  -10.55023 -10.54824 -10.49201 -10.49180 -10.47301
 Alpha  occ. eigenvalues --  -10.47199 -10.47164 -10.47049 -10.45917 -10.45781
 Alpha  occ. eigenvalues --  -10.44724 -10.44709  -1.53111  -1.46925  -1.40748
 Alpha  occ. eigenvalues --   -1.34815  -1.33147  -1.25734  -1.25270  -1.22890
 Alpha  occ. eigenvalues --   -1.22518  -1.16272  -1.14009  -1.11506  -1.09418
 Alpha  occ. eigenvalues --   -1.09260  -1.08427  -1.05082  -1.04360  -1.04064
 Alpha  occ. eigenvalues --   -1.00235  -0.98699  -0.97488  -0.95692  -0.95543
 Alpha  occ. eigenvalues --   -0.94444  -0.92576  -0.91612  -0.91311  -0.91087
 Alpha  occ. eigenvalues --   -0.90301  -0.88961  -0.88366  -0.84914  -0.84497
 Alpha  occ. eigenvalues --   -0.84005  -0.82916  -0.82873  -0.80620  -0.76967
 Alpha  occ. eigenvalues --   -0.75240  -0.74515
 Alpha virt. eigenvalues --   -0.56295  -0.42006  -0.40946  -0.37984  -0.37354
 Alpha virt. eigenvalues --   -0.35517  -0.33915  -0.29142  -0.27165  -0.25217
 Alpha virt. eigenvalues --   -0.23987  -0.23836  -0.22420  -0.21737  -0.20949
 Alpha virt. eigenvalues --   -0.20812  -0.20692  -0.18610  -0.17560  -0.17469
 Alpha virt. eigenvalues --   -0.16608  -0.15060  -0.13921  -0.13683  -0.13345
 Alpha virt. eigenvalues --   -0.12452  -0.10214  -0.09293  -0.08488  -0.07318
 Alpha virt. eigenvalues --   -0.06343  -0.05866  -0.05089  -0.03368  -0.02575
 Alpha virt. eigenvalues --   -0.02009   0.00219   0.01317   0.01897   0.04822
 Alpha virt. eigenvalues --    0.04952   0.05955   0.06506   0.07774   0.08423
 Alpha virt. eigenvalues --    0.09088   0.09227   0.10243   0.11328   0.12947
 Alpha virt. eigenvalues --    0.13729   0.14018   0.15337   0.15571   0.16126
 Alpha virt. eigenvalues --    0.16569   0.16904   0.17914   0.18549   0.19989
 Alpha virt. eigenvalues --    0.20395   0.20707   0.21441   0.21926   0.23443
 Alpha virt. eigenvalues --    0.24483   0.25327   0.26219   0.28360   0.28963
 Alpha virt. eigenvalues --    0.29604   0.29772   0.30743   0.31148   0.32479
 Alpha virt. eigenvalues --    0.33060   0.33534   0.34077   0.34267   0.34781
 Alpha virt. eigenvalues --    0.36236   0.36880   0.37125   0.37272   0.38241
 Alpha virt. eigenvalues --    0.38629   0.38758   0.39936   0.40606   0.40896
 Alpha virt. eigenvalues --    0.41904   0.43030   0.43589   0.44104   0.45965
 Alpha virt. eigenvalues --    0.46487   0.47735   0.48301   0.51708   0.51948
 Alpha virt. eigenvalues --    0.54193   0.54634   0.56849   0.58190   0.59542
 Alpha virt. eigenvalues --    0.62228   0.67699   0.68611   0.69584   0.72017
 Alpha virt. eigenvalues --    0.73183   0.74297   0.76378   0.77675   0.80065
 Alpha virt. eigenvalues --    0.80480   0.84392   0.85471   0.86044   0.86770
 Alpha virt. eigenvalues --    0.88651   0.89476   0.89934   0.90144   0.92188
 Alpha virt. eigenvalues --    0.93160   0.94769   0.95662   0.96324   0.97552
 Alpha virt. eigenvalues --    0.98044   1.00410   1.04420   1.09440   1.13901
 Alpha virt. eigenvalues --    1.16719   1.20385   1.22463   1.23695   1.27077
 Alpha virt. eigenvalues --    1.28694   1.29779   1.29949   1.30929   1.31645
 Alpha virt. eigenvalues --    1.32014   1.33337   1.35181   1.35849   1.36237
 Alpha virt. eigenvalues --    1.36852   1.37229   1.37765   1.38705   1.39832
 Alpha virt. eigenvalues --    1.40084   1.41011   1.42685   1.42774   1.44170
 Alpha virt. eigenvalues --    1.45031   1.45449   1.46527   1.48319   1.49204
 Alpha virt. eigenvalues --    1.49953   1.50428   1.53983   1.57906   1.58799
 Alpha virt. eigenvalues --    1.59920   1.59995   1.60229   1.60325   1.62689
 Alpha virt. eigenvalues --    1.63021   1.63260   1.64799   1.65005   1.66324
 Alpha virt. eigenvalues --    1.66454   1.68916   1.71165   1.72334   1.74804
 Alpha virt. eigenvalues --    1.76274   1.77090   1.77853   1.79902   1.80372
 Alpha virt. eigenvalues --    1.81588   1.82187   1.84003   1.84498   1.85989
 Alpha virt. eigenvalues --    1.87065   1.88159   1.90902   1.91477   1.93072
 Alpha virt. eigenvalues --    1.93276   1.94231   1.96066   1.97146   1.97983
 Alpha virt. eigenvalues --    2.00336   2.04290   2.07014   2.12234   2.12993
 Alpha virt. eigenvalues --    2.15943   2.17392   2.17962   2.19682   2.21221
 Alpha virt. eigenvalues --    2.21472   2.22622   2.26377   2.26882   2.34916
 Alpha virt. eigenvalues --    2.35167   2.36011   2.36205   2.36678   2.38641
 Alpha virt. eigenvalues --    2.39790   2.42312   2.45788   2.46289   2.47283
 Alpha virt. eigenvalues --    2.48723   2.49218   2.56875   2.59710   2.66267
 Alpha virt. eigenvalues --    2.69501   2.71177   2.73258   2.76326   2.80944
 Alpha virt. eigenvalues --    2.86906   2.97364   3.01842   3.17061   3.19102
 Alpha virt. eigenvalues --    3.22177
          Condensed to atoms (all electrons):
               1          2          3          4          5          6
     1  N    5.658458   0.574602  -0.029936  -0.050282  -0.000460  -0.000149
     2  C    0.574602   4.787692   0.317913   0.275021  -0.027591  -0.008516
     3  C   -0.029936   0.317913   5.143038   0.147197  -0.039005   0.002634
     4  C   -0.050282   0.275021   0.147197   5.273316   0.310262  -0.052340
     5  N   -0.000460  -0.027591  -0.039005   0.310262   6.471659   0.324062
     6  C   -0.000149  -0.008516   0.002634  -0.052340   0.324062   5.410052
     7  C   -0.000197   0.000294  -0.000051  -0.001227  -0.063105   0.183181
     8  C    0.000018   0.000047   0.000011  -0.000310   0.005407   0.113809
     9  C    0.000000  -0.000006  -0.000001   0.000074  -0.000321  -0.132383
    10  C    0.000000   0.000003   0.000005   0.000016   0.007744   0.095811
    11  C   -0.000001   0.000264  -0.000281   0.005515  -0.068190   0.153329
    12  C   -0.000070   0.000209  -0.005499  -0.054241   0.321583  -0.074905
    13  C   -0.000000  -0.000406   0.000150   0.003614  -0.067498   0.009291
    14  C    0.000000   0.000012   0.000003   0.000081   0.007730   0.000574
    15  C   -0.000000  -0.000002  -0.000015   0.000067  -0.000315   0.000207
    16  C    0.000000   0.000052   0.000015   0.000262   0.005116  -0.000319
    17  C   -0.000006  -0.000972   0.001500  -0.002919  -0.060695   0.005997
    18  H    0.380102  -0.018213   0.006938  -0.017208   0.000256   0.000107
    19  H    0.349034   0.004947  -0.011375   0.010852  -0.000046  -0.000011
    20  H   -0.000648  -0.032047   0.448107  -0.048223  -0.000924  -0.000069
    21  H    0.000933   0.000488  -0.000791   0.000431  -0.008960  -0.072171
    22  H   -0.000001   0.000002  -0.000001  -0.000020  -0.000061   0.011128
    23  H   -0.000000  -0.000000   0.000000  -0.000000   0.000008  -0.001311
    24  H    0.000000   0.000000  -0.000000   0.000004  -0.000043   0.010296
    25  H   -0.000000   0.000004  -0.000018  -0.000678  -0.013020  -0.050525
    26  H   -0.000000  -0.000052   0.000014  -0.000904  -0.013182   0.004883
    27  H   -0.000000  -0.000000   0.000000   0.000003  -0.000043  -0.000056
    28  H    0.000000   0.000000  -0.000000   0.000000   0.000008  -0.000000
    29  H   -0.000000  -0.000001   0.000005  -0.000026  -0.000058   0.000005
    30  H   -0.000014  -0.001600  -0.000316   0.003018  -0.008644  -0.000309
               7          8          9         10         11         12
     1  N   -0.000197   0.000018   0.000000   0.000000  -0.000001  -0.000070
     2  C    0.000294   0.000047  -0.000006   0.000003   0.000264   0.000209
     3  C   -0.000051   0.000011  -0.000001   0.000005  -0.000281  -0.005499
     4  C   -0.001227  -0.000310   0.000074   0.000016   0.005515  -0.054241
     5  N   -0.063105   0.005407  -0.000321   0.007744  -0.068190   0.321583
     6  C    0.183181   0.113809  -0.132383   0.095811   0.153329  -0.074905
     7  C    5.107429   0.338315   0.064095  -0.112479   0.040918   0.005784
     8  C    0.338315   4.927717   0.249275   0.084188  -0.122559  -0.000358
     9  C    0.064095   0.249275   4.966426   0.287913   0.080800   0.000230
    10  C   -0.112479   0.084188   0.287913   4.960205   0.282077   0.000515
    11  C    0.040918  -0.122559   0.080800   0.282077   5.163442   0.009488
    12  C    0.005784  -0.000358   0.000230   0.000515   0.009488   5.405196
    13  C    0.001545  -0.000333  -0.000045  -0.004785   0.023958   0.154546
    14  C   -0.000198   0.000013  -0.000044   0.000412  -0.004684   0.093412
    15  C    0.000007  -0.000001   0.000001  -0.000041  -0.000026  -0.131042
    16  C   -0.000009   0.000000  -0.000001   0.000012  -0.000334   0.114735
    17  C   -0.000245  -0.000009   0.000007  -0.000194   0.001525   0.186423
    18  H    0.000507   0.000035   0.000002  -0.000002   0.000005  -0.000013
    19  H   -0.000001  -0.000000  -0.000000   0.000000  -0.000000   0.000006
    20  H   -0.000009   0.000000  -0.000000   0.000000  -0.000000   0.000523
    21  H    0.441639  -0.030236   0.010341  -0.001793   0.008777  -0.000428
    22  H   -0.047279   0.436620  -0.044949   0.008712  -0.001061   0.000006
    23  H    0.010376  -0.049153   0.438982  -0.048972   0.010847   0.000000
    24  H   -0.001185   0.008692  -0.044643   0.441772  -0.050750  -0.000058
    25  H    0.007439  -0.001189   0.008880  -0.032577   0.425693   0.004921
    26  H    0.000233  -0.000280   0.000483  -0.003951   0.004150  -0.048916
    27  H   -0.000003   0.000001  -0.000001   0.000038  -0.000075   0.010121
    28  H    0.000000   0.000000   0.000000   0.000000  -0.000002  -0.001272
    29  H   -0.000000   0.000000   0.000000  -0.000000   0.000001   0.011023
    30  H    0.000015  -0.000000   0.000000  -0.000001   0.000047  -0.069825
              13         14         15         16         17         18
     1  N   -0.000000   0.000000  -0.000000   0.000000  -0.000006   0.380102
     2  C   -0.000406   0.000012  -0.000002   0.000052  -0.000972  -0.018213
     3  C    0.000150   0.000003  -0.000015   0.000015   0.001500   0.006938
     4  C    0.003614   0.000081   0.000067   0.000262  -0.002919  -0.017208
     5  N   -0.067498   0.007730  -0.000315   0.005116  -0.060695   0.000256
     6  C    0.009291   0.000574   0.000207  -0.000319   0.005997   0.000107
     7  C    0.001545  -0.000198   0.000007  -0.000009  -0.000245   0.000507
     8  C   -0.000333   0.000013  -0.000001   0.000000  -0.000009   0.000035
     9  C   -0.000045  -0.000044   0.000001  -0.000001   0.000007   0.000002
    10  C   -0.004785   0.000412  -0.000041   0.000012  -0.000194  -0.000002
    11  C    0.023958  -0.004684  -0.000026  -0.000334   0.001525   0.000005
    12  C    0.154546   0.093412  -0.131042   0.114735   0.186423  -0.000013
    13  C    5.153990   0.288140   0.080604  -0.122459   0.040211   0.000000
    14  C    0.288140   4.956494   0.286432   0.083037  -0.110266  -0.000000
    15  C    0.080604   0.286432   4.966290   0.246364   0.063658   0.000000
    16  C   -0.122459   0.083037   0.246364   4.924656   0.343908   0.000000
    17  C    0.040211  -0.110266   0.063658   0.343908   5.076203   0.000002
    18  H    0.000000  -0.000000   0.000000   0.000000   0.000002   0.436399
    19  H   -0.000000   0.000000  -0.000000  -0.000000  -0.000001  -0.017339
    20  H   -0.000004   0.000000  -0.000000  -0.000002   0.000237  -0.000042
    21  H    0.000059  -0.000000   0.000000   0.000000   0.000011   0.000330
    22  H    0.000001  -0.000000   0.000000   0.000000  -0.000000  -0.000000
    23  H   -0.000003   0.000000   0.000000   0.000000   0.000000  -0.000000
    24  H   -0.000068   0.000038  -0.000001   0.000001  -0.000003   0.000000
    25  H    0.003849  -0.003745   0.000435  -0.000248   0.000258  -0.000000
    26  H    0.423882  -0.032119   0.008751  -0.001164   0.007212  -0.000000
    27  H   -0.049946   0.440807  -0.044136   0.008572  -0.001161   0.000000
    28  H    0.010734  -0.048611   0.438120  -0.048434   0.010193  -0.000000
    29  H   -0.001071   0.008629  -0.045189   0.436005  -0.045910  -0.000000
    30  H    0.008688  -0.001782   0.010334  -0.031084   0.442442   0.000002
              19         20         21         22         23         24
     1  N    0.349034  -0.000648   0.000933  -0.000001  -0.000000   0.000000
     2  C    0.004947  -0.032047   0.000488   0.000002  -0.000000   0.000000
     3  C   -0.011375   0.448107  -0.000791  -0.000001   0.000000  -0.000000
     4  C    0.010852  -0.048223   0.000431  -0.000020  -0.000000   0.000004
     5  N   -0.000046  -0.000924  -0.008960  -0.000061   0.000008  -0.000043
     6  C   -0.000011  -0.000069  -0.072171   0.011128  -0.001311   0.010296
     7  C   -0.000001  -0.000009   0.441639  -0.047279   0.010376  -0.001185
     8  C   -0.000000   0.000000  -0.030236   0.436620  -0.049153   0.008692
     9  C   -0.000000  -0.000000   0.010341  -0.044949   0.438982  -0.044643
    10  C    0.000000   0.000000  -0.001793   0.008712  -0.048972   0.441772
    11  C   -0.000000  -0.000000   0.008777  -0.001061   0.010847  -0.050750
    12  C    0.000006   0.000523  -0.000428   0.000006   0.000000  -0.000058
    13  C   -0.000000  -0.000004   0.000059   0.000001  -0.000003  -0.000068
    14  C    0.000000   0.000000  -0.000000  -0.000000   0.000000   0.000038
    15  C   -0.000000  -0.000000   0.000000   0.000000   0.000000  -0.000001
    16  C   -0.000000  -0.000002   0.000000   0.000000   0.000000   0.000001
    17  C   -0.000001   0.000237   0.000011  -0.000000   0.000000  -0.000003
    18  H   -0.017339  -0.000042   0.000330  -0.000000  -0.000000   0.000000
    19  H    0.414471   0.000300  -0.000029   0.000000  -0.000000   0.000000
    20  H    0.000300   0.457688  -0.000008   0.000000   0.000000  -0.000000
    21  H   -0.000029  -0.000008   0.572855  -0.009150  -0.000081   0.000008
    22  H    0.000000   0.000000  -0.009150   0.516222  -0.007367  -0.000067
    23  H   -0.000000   0.000000  -0.000081  -0.007367   0.503972  -0.007824
    24  H    0.000000  -0.000000   0.000008  -0.000067  -0.007824   0.516318
    25  H    0.000000  -0.000000  -0.000041   0.000007  -0.000079  -0.007635
    26  H   -0.000000  -0.000000   0.000018  -0.000002   0.000004  -0.000053
    27  H   -0.000000  -0.000000  -0.000000  -0.000000   0.000000   0.000002
    28  H    0.000000  -0.000000   0.000000   0.000000  -0.000000   0.000000
    29  H    0.000000   0.000001  -0.000000  -0.000000   0.000000  -0.000000
    30  H   -0.000001  -0.000064   0.000000  -0.000000  -0.000000  -0.000000
              25         26         27         28         29         30
     1  N   -0.000000  -0.000000  -0.000000   0.000000  -0.000000  -0.000014
     2  C    0.000004  -0.000052  -0.000000   0.000000  -0.000001  -0.001600
     3  C   -0.000018   0.000014   0.000000  -0.000000   0.000005  -0.000316
     4  C   -0.000678  -0.000904   0.000003   0.000000  -0.000026   0.003018
     5  N   -0.013020  -0.013182  -0.000043   0.000008  -0.000058  -0.008644
     6  C   -0.050525   0.004883  -0.000056  -0.000000   0.000005  -0.000309
     7  C    0.007439   0.000233  -0.000003   0.000000  -0.000000   0.000015
     8  C   -0.001189  -0.000280   0.000001   0.000000   0.000000  -0.000000
     9  C    0.008880   0.000483  -0.000001   0.000000   0.000000   0.000000
    10  C   -0.032577  -0.003951   0.000038   0.000000  -0.000000  -0.000001
    11  C    0.425693   0.004150  -0.000075  -0.000002   0.000001   0.000047
    12  C    0.004921  -0.048916   0.010121  -0.001272   0.011023  -0.069825
    13  C    0.003849   0.423882  -0.049946   0.010734  -0.001071   0.008688
    14  C   -0.003745  -0.032119   0.440807  -0.048611   0.008629  -0.001782
    15  C    0.000435   0.008751  -0.044136   0.438120  -0.045189   0.010334
    16  C   -0.000248  -0.001164   0.008572  -0.048434   0.436005  -0.031084
    17  C    0.000258   0.007212  -0.001161   0.010193  -0.045910   0.442442
    18  H   -0.000000  -0.000000   0.000000  -0.000000  -0.000000   0.000002
    19  H    0.000000  -0.000000  -0.000000   0.000000   0.000000  -0.000001
    20  H   -0.000000  -0.000000  -0.000000  -0.000000   0.000001  -0.000064
    21  H   -0.000041   0.000018  -0.000000   0.000000  -0.000000   0.000000
    22  H    0.000007  -0.000002  -0.000000   0.000000  -0.000000  -0.000000
    23  H   -0.000079   0.000004   0.000000  -0.000000   0.000000  -0.000000
    24  H   -0.007635  -0.000053   0.000002   0.000000  -0.000000  -0.000000
    25  H    0.527175  -0.000062  -0.000049   0.000004  -0.000002   0.000029
    26  H   -0.000062   0.526780  -0.007591  -0.000079   0.000007  -0.000043
    27  H   -0.000049  -0.007591   0.515293  -0.007749  -0.000065   0.000008
    28  H    0.000004  -0.000079  -0.007749   0.502026  -0.007275  -0.000076
    29  H   -0.000002   0.000007  -0.000065  -0.007275   0.513450  -0.009116
    30  H    0.000029  -0.000043   0.000008  -0.000076  -0.009116   0.565924
 Mulliken charges:
               1
     1  N    0.118617
     2  C    0.127857
     3  C    0.019757
     4  C    0.198641
     5  N   -0.081675
     6  C    0.067699
     7  C    0.024210
     8  C    0.040279
     9  C    0.114884
    10  C    0.035369
    11  C    0.037127
    12  C    0.067908
    13  C    0.043355
    14  C    0.035634
    15  C    0.119499
    16  C    0.041318
    17  C    0.042593
    18  H    0.228134
    19  H    0.249193
    20  H    0.175186
    21  H    0.087798
    22  H    0.137258
    23  H    0.150601
    24  H    0.135198
    25  H    0.131176
    26  H    0.131984
    27  H    0.136031
    28  H    0.152415
    29  H    0.139586
    30  H    0.092369
 Sum of Mulliken charges =   3.00000
 Mulliken charges with hydrogens summed into heavy atoms:
               1
     1  N    0.595944
     2  C    0.127857
     3  C    0.194944
     4  C    0.198641
     5  N   -0.081675
     6  C    0.067699
     7  C    0.112008
     8  C    0.177537
     9  C    0.265485
    10  C    0.170567
    11  C    0.168303
    12  C    0.067908
    13  C    0.175339
    14  C    0.171665
    15  C    0.271914
    16  C    0.180903
    17  C    0.134961
 APT charges:
               1
     1  N   -0.563862
     2  C    0.679337
     3  C   -0.064634
     4  C    0.214896
     5  N    0.448970
     6  C   -0.383732
     7  C    0.240098
     8  C   -0.209937
     9  C    0.368306
    10  C   -0.383097
    11  C    0.254944
    12  C   -0.353252
    13  C    0.257040
    14  C   -0.404560
    15  C    0.404334
    16  C   -0.219520
    17  C    0.244029
    18  H    0.311731
    19  H    0.397811
    20  H    0.257152
    21  H    0.101961
    22  H    0.161045
    23  H    0.201496
    24  H    0.163430
    25  H    0.115753
    26  H    0.116160
    27  H    0.165741
    28  H    0.204367
    29  H    0.166501
    30  H    0.107491
 Sum of APT charges =   3.00000
 APT charges with hydrogens summed into heavy atoms:
               1
     1  N    0.145680
     2  C    0.679337
     3  C    0.192518
     4  C    0.214896
     5  N    0.448970
     6  C   -0.383732
     7  C    0.342059
     8  C   -0.048892
     9  C    0.569802
    10  C   -0.219667
    11  C    0.370698
    12  C   -0.353252
    13  C    0.373200
    14  C   -0.238819
    15  C    0.608701
    16  C   -0.053019
    17  C    0.351519
 Electronic spatial extent (au):  <R**2>=           3957.5542
 Charge=              3.0000 electrons
 Dipole moment (field-independent basis, Debye):
    X=             -3.0163    Y=              5.2786    Z=              0.3462  Tot=              6.0895
 Quadrupole moment (field-independent basis, Debye-Ang):
   XX=             20.6400   YY=              8.0919   ZZ=            -82.0375
   XY=            -10.6022   XZ=             -0.4703   YZ=              0.6765
 Traceless Quadrupole moment (field-independent basis, Debye-Ang):
   XX=             38.4085   YY=             25.8605   ZZ=            -64.2690
   XY=            -10.6022   XZ=             -0.4703   YZ=              0.6765
 Octapole moment (field-independent basis, Debye-Ang**2):
  XXX=             61.8996  YYY=            112.2163  ZZZ=              1.8318  XYY=           -143.3792
  XXY=             12.9684  XXZ=              7.6148  XZZ=             -5.2640  YZZ=              0.6715
  YYZ=             12.0993  XYZ=             -0.3560
 Hexadecapole moment (field-independent basis, Debye-Ang**3):
 XXXX=          -1130.1593 YYYY=           -862.7331 ZZZZ=           -251.6001 XXXY=           -174.8625
 XXXZ=             31.6688 YYYX=           -180.3488 YYYZ=            -72.2220 ZZZX=              0.4962
 ZZZY=             -1.0000 XXYY=           -202.5953 XXZZ=           -452.9154 YYZZ=           -326.4120
 XXYZ=            137.2925 YYXZ=            -73.2051 ZZXY=            -13.4103
 N-N= 1.082496749461D+03 E-N=-3.703923216900D+03  KE= 6.788629163206D+02
  Exact polarizability: 348.884  45.190 219.586   1.585  -1.079  90.188
 Approx polarizability: 435.582  69.341 258.130   5.251  -1.206 119.918
 No NMR shielding tensors so no spin-rotation constants.
 Leave Link  601 at Wed May 11 06:39:31 2022, MaxMem=  6442450944 cpu:               9.9 elap:               0.7
 (Enter /mnt/gpfs3_amd/share/apps/amd/gaussian/g16-A.03/g16/l701.exe)
 ... and contract with generalized density number  0.
 Compute integral second derivatives.
   1 Symmetry operations used in ECPInt.
 ECPInt:  NShTT=   10011 NPrTT=   36575 LenC2=    9396 LenP2D=   24551.
 LDataN:  DoStor=T MaxTD1= 6 Len=  172
 Leave Link  701 at Wed May 11 06:39:32 2022, MaxMem=  6442450944 cpu:               8.3 elap:               0.6
 (Enter /mnt/gpfs3_amd/share/apps/amd/gaussian/g16-A.03/g16/l702.exe)
 L702 exits ... SP integral derivatives will be done elsewhere.
 Leave Link  702 at Wed May 11 06:39:32 2022, MaxMem=  6442450944 cpu:               0.3 elap:               0.0
 (Enter /mnt/gpfs3_amd/share/apps/amd/gaussian/g16-A.03/g16/l703.exe)
 Integral derivatives from FoFJK, PRISM(SPDF).
 Compute integral second derivatives, UseDBF=F ICtDFT=           0.
 Calling FoFJK, ICntrl=    100127 FMM=F ISym2X=0 I1Cent= 0 IOpClX= 0 NMat=1 NMatS=1 NMatT=0.
 FoFJK:  IHMeth= 1 ICntrl=  100127 DoSepK=T KAlg= 0 I1Cent=           0 FoldK=F
 IRaf=         1 NMat=       1 IRICut=       1 DoRegI=T DoRafI=F ISym2E= 0 IDoP0=0 IntGTp=1.
 FoFCou: FMM=F IPFlag=           0 FMFlag=      100000 FMFlg1=         800
         NFxFlg=           0 DoJE=F BraDBF=F KetDBF=F FulRan=T
         wScrn=  0.000000 ICntrl=    100527 IOpCl=  0 I1Cent=           0 NGrid=           0
         NMat0=    1 NMatS0=      1 NMatT0=    0 NMatD0=    1 NMtDS0=    0 NMtDT0=    0
 Symmetry not used in FoFCou.
 Leave Link  703 at Wed May 11 06:43:06 2022, MaxMem=  6442450944 cpu:            3393.5 elap:             213.8
 (Enter /mnt/gpfs3_amd/share/apps/amd/gaussian/g16-A.03/g16/l716.exe)
 Dipole        =-1.18669515D+00 2.07677313D+00 1.36220915D-01
 Polarizability= 3.48884286D+02 4.51898619D+01 2.19585804D+02
                 1.58535073D+00-1.07891893D+00 9.01878982D+01
 Full mass-weighted force constant matrix:
 Low frequencies ---   -3.8611   -0.9901   -0.0008   -0.0006   -0.0003    2.1520
 Low frequencies ---   38.0404   51.9905   63.0910
 Diagonal vibrational polarizability:
       75.2362375      42.4398699      48.4371886
 Harmonic frequencies (cm**-1), IR intensities (KM/Mole), Raman scattering
 activities (A**4/AMU), depolarization ratios for plane and unpolarized
 incident light, reduced masses (AMU), force constants (mDyne/A),
 and normal coordinates:
                      1                      2                      3
                      A                      A                      A
 Frequencies --     38.0401                51.9902                63.0910
 Red. masses --      4.0103                 4.7086                 4.1893
 Frc consts  --      0.0034                 0.0075                 0.0098
 IR Inten    --      1.1674                 0.2358                 3.1858
  Atom  AN      X      Y      Z        X      Y      Z        X      Y      Z
     1   7     0.14   0.03   0.24     0.05   0.14   0.14     0.09   0.19  -0.10
     2   6     0.05  -0.03   0.04    -0.01   0.09   0.02     0.06   0.06  -0.07
     3   6    -0.06  -0.10  -0.23    -0.07   0.04  -0.13     0.08  -0.07  -0.09
     4   6    -0.00  -0.05  -0.07    -0.05   0.07  -0.05    -0.01  -0.03  -0.00
     5   7     0.01  -0.06  -0.03    -0.04   0.07  -0.03    -0.05  -0.04   0.05
     6   6    -0.01  -0.04  -0.03    -0.01   0.05  -0.00    -0.03  -0.04   0.05
     7   6    -0.01  -0.00  -0.03    -0.01  -0.03   0.01    -0.08  -0.02   0.13
     8   6    -0.06   0.03  -0.03     0.09  -0.10  -0.02    -0.06  -0.03   0.11
     9   6    -0.10   0.02  -0.02     0.20  -0.09  -0.06     0.02  -0.08  -0.01
    10   6    -0.10  -0.02  -0.02     0.19  -0.01  -0.06     0.07  -0.10  -0.09
    11   6    -0.05  -0.05  -0.02     0.08   0.07  -0.02     0.03  -0.08  -0.05
    12   6     0.01  -0.02  -0.01    -0.05   0.05  -0.03    -0.03  -0.02   0.05
    13   6     0.07  -0.03   0.06    -0.10  -0.00   0.01     0.00   0.06  -0.06
    14   6     0.09   0.04   0.08    -0.13  -0.11   0.10     0.02   0.12  -0.13
    15   6     0.04   0.11   0.06    -0.10  -0.15   0.10    -0.01   0.09  -0.03
    16   6    -0.01   0.12  -0.01    -0.04  -0.09   0.02    -0.06  -0.00   0.12
    17   6    -0.03   0.05  -0.04    -0.02   0.01  -0.05    -0.07  -0.05   0.15
    18   1     0.22   0.07   0.43     0.09   0.17   0.25     0.04   0.28  -0.06
    19   1     0.13   0.02   0.21     0.06   0.14   0.13     0.18   0.20  -0.18
    20   1    -0.14  -0.15  -0.44    -0.10   0.01  -0.24     0.14  -0.15  -0.15
    21   1     0.02   0.01  -0.03    -0.09  -0.04   0.04    -0.14   0.02   0.22
    22   1    -0.06   0.06  -0.02     0.10  -0.17  -0.01    -0.11  -0.00   0.19
    23   1    -0.12   0.04  -0.02     0.27  -0.15  -0.09     0.04  -0.09  -0.03
    24   1    -0.13  -0.03  -0.01     0.26   0.00  -0.08     0.12  -0.14  -0.18
    25   1    -0.03  -0.09  -0.04     0.03   0.15   0.04     0.06  -0.11  -0.09
    26   1     0.10  -0.11   0.10    -0.10   0.06  -0.05     0.01   0.08  -0.09
    27   1     0.13   0.03   0.13    -0.17  -0.16   0.15     0.06   0.19  -0.23
    28   1     0.05   0.15   0.08    -0.12  -0.22   0.16    -0.00   0.13  -0.06
    29   1    -0.05   0.18  -0.04    -0.02  -0.12   0.02    -0.08  -0.04   0.20
    30   1    -0.08   0.06  -0.09     0.03   0.06  -0.11    -0.11  -0.12   0.25
                      4                      5                      6
                      A                      A                      A
 Frequencies --     83.9707                89.2108               117.3851
 Red. masses --      4.0316                 4.1871                 4.0538
 Frc consts  --      0.0167                 0.0196                 0.0329
 IR Inten    --      0.9788                 2.9493                 4.5715
  Atom  AN      X      Y      Z        X      Y      Z        X      Y      Z
     1   7     0.07   0.11   0.05    -0.02  -0.09   0.08     0.07   0.10   0.01
     2   6     0.04   0.04   0.03    -0.03  -0.03  -0.00     0.06   0.04   0.05
     3   6     0.05  -0.01   0.01    -0.07   0.03  -0.06     0.15   0.04   0.24
     4   6    -0.01  -0.00   0.01    -0.00   0.01  -0.08    -0.00  -0.01  -0.03
     5   7    -0.03  -0.01   0.02     0.02   0.02  -0.12    -0.04  -0.03  -0.14
     6   6    -0.02  -0.02  -0.00     0.04   0.01  -0.11    -0.02  -0.05  -0.12
     7   6     0.07  -0.11  -0.17     0.02  -0.02  -0.07    -0.05  -0.09  -0.06
     8   6     0.11  -0.14  -0.18    -0.02   0.01   0.07    -0.06  -0.09   0.06
     9   6     0.03  -0.05   0.01    -0.03   0.07   0.16    -0.03  -0.05   0.10
    10   6    -0.07   0.05   0.19     0.01   0.08   0.08     0.02  -0.02   0.02
    11   6    -0.08   0.06   0.15     0.05   0.05  -0.06     0.01  -0.02  -0.09
    12   6    -0.03  -0.02   0.05     0.02   0.02  -0.09    -0.03  -0.00  -0.11
    13   6    -0.04   0.02  -0.02     0.04   0.07  -0.18     0.03  -0.03  -0.02
    14   6    -0.02   0.06  -0.12     0.03   0.05  -0.12     0.03  -0.00   0.10
    15   6    -0.02   0.05  -0.11    -0.01  -0.06   0.10    -0.02   0.05   0.10
    16   6    -0.02  -0.01   0.00    -0.03  -0.12   0.22    -0.07   0.09  -0.02
    17   6    -0.03  -0.04   0.08    -0.01  -0.07   0.10    -0.08   0.05  -0.12
    18   1     0.04   0.15   0.05     0.04  -0.13   0.10    -0.05   0.10  -0.18
    19   1     0.13   0.13   0.06    -0.07  -0.10   0.13     0.19   0.15   0.15
    20   1     0.08  -0.04   0.02    -0.11   0.06  -0.08     0.27   0.06   0.47
    21   1     0.13  -0.17  -0.28     0.02  -0.06  -0.13    -0.08  -0.12  -0.09
    22   1     0.19  -0.22  -0.32    -0.05  -0.01   0.13    -0.09  -0.12   0.11
    23   1     0.04  -0.06   0.01    -0.07   0.10   0.29    -0.04  -0.03   0.20
    24   1    -0.14   0.12   0.32     0.02   0.12   0.14     0.05   0.01   0.05
    25   1    -0.13   0.13   0.20     0.09   0.08  -0.11     0.03   0.02  -0.12
    26   1    -0.06   0.01   0.01     0.07   0.14  -0.26     0.08  -0.08  -0.04
    27   1    -0.02   0.10  -0.19     0.06   0.11  -0.20     0.08  -0.03   0.18
    28   1    -0.01   0.09  -0.19    -0.01  -0.10   0.20    -0.02   0.06   0.20
    29   1    -0.02  -0.02   0.01    -0.07  -0.21   0.39    -0.12   0.14  -0.02
    30   1    -0.04  -0.08   0.15    -0.04  -0.11   0.15    -0.12   0.07  -0.18
                      7                      8                      9
                      A                      A                      A
 Frequencies --    202.7670               217.2543               275.4021
 Red. masses --      4.0378                 4.0261                 4.5073
 Frc consts  --      0.0978                 0.1120                 0.2014
 IR Inten    --      4.5329                 0.5341                 5.8524
  Atom  AN      X      Y      Z        X      Y      Z        X      Y      Z
     1   7    -0.07   0.20  -0.05    -0.01   0.00   0.02    -0.10   0.20   0.00
     2   6    -0.09   0.02   0.06    -0.02   0.02  -0.01    -0.15  -0.01   0.05
     3   6    -0.10  -0.07  -0.00    -0.02   0.04  -0.02    -0.17   0.02   0.06
     4   6    -0.09  -0.03   0.15    -0.00   0.03  -0.03    -0.10  -0.01  -0.01
     5   7     0.02  -0.01   0.09    -0.01   0.03  -0.02     0.01  -0.01  -0.10
     6   6     0.10  -0.09  -0.02     0.00   0.01  -0.15    -0.03   0.03  -0.04
     7   6     0.13  -0.06  -0.08     0.02  -0.04  -0.15    -0.08   0.03   0.04
     8   6     0.03   0.01  -0.03    -0.03  -0.01   0.06    -0.03  -0.00   0.02
     9   6    -0.10   0.03   0.09    -0.03   0.04   0.14     0.05  -0.02  -0.07
    10   6    -0.05  -0.07  -0.00     0.09  -0.01  -0.09    -0.00   0.06   0.03
    11   6     0.07  -0.14  -0.07     0.05   0.02  -0.16    -0.04   0.08   0.03
    12   6     0.03   0.08  -0.00    -0.01  -0.01   0.15     0.04  -0.08  -0.05
    13   6     0.01   0.09  -0.05    -0.04  -0.04   0.18     0.14  -0.12   0.03
    14   6    -0.03  -0.01   0.00    -0.04  -0.06   0.10     0.18  -0.04   0.01
    15   6     0.00  -0.08   0.06     0.02   0.05  -0.17     0.17   0.01  -0.04
    16   6     0.07  -0.01  -0.04     0.03  -0.00  -0.04     0.08  -0.07   0.03
    17   6     0.08   0.07  -0.05     0.00  -0.06   0.19     0.05  -0.13   0.01
    18   1    -0.15   0.36   0.03     0.01  -0.01   0.02    -0.26   0.37  -0.00
    19   1     0.05   0.21  -0.23    -0.02   0.00   0.04     0.11   0.25  -0.06
    20   1    -0.12  -0.14  -0.14    -0.03   0.05  -0.01    -0.20   0.07   0.09
    21   1     0.21  -0.06  -0.12     0.02  -0.10  -0.23    -0.14   0.04   0.08
    22   1     0.04   0.05  -0.05    -0.09  -0.03   0.15    -0.05  -0.02   0.05
    23   1    -0.22   0.13   0.23    -0.11   0.11   0.36     0.14  -0.09  -0.18
    24   1    -0.10  -0.08   0.01     0.15   0.00  -0.11     0.00   0.08   0.07
    25   1     0.12  -0.22  -0.13     0.01   0.07  -0.11    -0.07   0.13   0.05
[...]
 68,-0.00129283,-0.00228515,0.08710358,0.20294521,0.00005373,-0.0001037
 4,-0.00002331,-0.00009236,0.00011960,0.00006728,0.00006953,-0.00003556
 ,-0.00000966,-0.00015619,-0.00007500,-0.00010651,0.00033475,-0.0001973
 4,0.00087636,-0.00403116,0.00447088,0.00186180,0.00134924,-0.00083961,
 0.00034541,-0.00357661,0.00309081,0.00231154,0.00795411,0.01232386,-0.
 00427444,0.05660698,0.12685384,-0.14281289,-0.00188049,-0.00431765,0.0
 0752941,-0.00003289,0.00046850,0.00011086,-0.00032132,-0.00027387,0.00
 008879,0.00002844,-0.00018225,0.00016631,-0.00021654,-0.00033468,-0.00
 026486,-0.00003906,0.00032300,0.00008405,0.00003681,0.00006756,-0.0001
 4673,-0.00004223,-0.00000108,0.00000579,0.00001042,0.00002620,-0.00000
 339,0.00000710,0.00001847,-0.00001362,0.00023118,-0.00039352,-0.000360
 50,0.00039891,0.00023150,-0.00037964,0.00097183,-0.00179051,-0.0010943
 5,-0.05840918,-0.13706639,0.13745099,-0.00004917,0.00001804,-0.0000155
 7,0.00008364,-0.00005080,0.00007841,0.00005573,0.00004755,0.00009010,0
 .00012225,-0.00010084,-0.00068104,0.00064805,0.00085227,0.00223452,0.0
 0508881,-0.00285822,0.00793463,0.00182853,-0.00349980,0.00061973,-0.00
 061764,-0.00036059,0.00038376,-0.00390739,-0.00454760,-0.00050780,-0.0
 1122291,0.01066826,-0.02065948,-0.13171924,0.04967068,-0.12039147,-0.0
 0102273,-0.00117495,0.00126411,-0.00178703,0.00051924,0.00140765,-0.00
 042853,0.00016808,0.00018786,-0.00007809,-0.00017415,0.00015413,-0.000
 17342,0.00051336,-0.00006114,0.00037671,-0.00004452,-0.00023120,0.0000
 2261,0.00001853,-0.00000819,0.00001099,0.00001167,0.00001364,0.0000059
 8,-0.00000693,-0.00001550,0.00041163,-0.00043564,0.00001222,-0.0000816
 8,0.00023247,0.00010408,-0.00036374,0.00100041,-0.00035551,0.00049824,
 0.00111747,0.00069679,0.14190122,0.00013603,-0.00014155,-0.00006603,-0
 .00029099,0.00024757,0.00012443,0.00022955,-0.00006273,0.00003092,0.00
 000028,-0.00018655,-0.00014250,0.00442427,-0.00247667,-0.00080258,0.00
 739323,-0.00883107,0.01801896,-0.00444559,-0.00086590,0.00116470,0.000
 37422,0.00019523,-0.00160901,-0.00418766,0.00396611,0.00165444,-0.0024
 8298,0.00970288,-0.00403428,0.04640562,-0.07753012,0.08235476,0.000353
 11,0.00200953,-0.00179103,0.00237395,-0.00063127,-0.00095097,-0.001297
 16,0.00089150,-0.00115244,0.00091740,0.00050302,0.00091908,0.00018715,
 0.00013814,0.00005503,0.00037645,-0.00043498,0.00040753,-0.00008425,-0
 .00003491,0.00004284,0.00002024,0.00002832,0.00002030,0.00001917,0.000
 00321,-0.00002482,0.00024717,0.00052938,0.00101238,0.00017494,-0.00007
 563,0.00001912,-0.00010706,-0.00000622,-0.00094201,0.00098186,-0.00135
 437,-0.00244486,-0.05152460,0.07443976,0.00035465,-0.00046095,-0.00007
 387,-0.00079161,0.00059855,0.00018685,0.00029289,-0.00043891,-0.000091
 82,0.00034322,0.00108951,0.00001357,-0.00054125,-0.00333554,0.00036961
 ,-0.00977311,0.00039036,-0.00339559,-0.00043574,0.00216313,-0.00137933
 ,0.00084977,0.00037791,-0.00114626,-0.00180550,0.00360454,0.00134263,0
 .00422900,0.00396654,0.00813981,-0.12601570,0.08415929,-0.20640086,0.0
 0195567,0.00033024,-0.00191064,0.00329129,-0.00102789,-0.00171012,-0.0
 0265628,0.00160230,-0.00127948,0.00152043,0.00079353,0.00162756,0.0002
 1707,-0.00015101,0.00002706,0.00040082,-0.00046643,0.00041271,-0.00016
 539,-0.00000112,0.00003865,0.00006821,0.00013229,0.00002065,0.00010529
 ,0.00001222,-0.00008327,-0.00077476,0.00096723,0.00049851,0.00006091,0
 .00000557,0.00009582,0.00024673,-0.00065106,-0.00114029,0.00119585,-0.
 00143844,-0.00125382,0.12801833,-0.09205444,0.20676124,-0.00002596,0.0
 0002222,-0.00000736,-0.00000772,-0.00003832,0.00004812,0.00009808,-0.0
 0005739,0.00005564,-0.00006146,-0.00022082,-0.00039788,-0.00281979,0.0
 0041196,0.00232563,0.00076377,0.00260244,0.00154543,-0.00006570,-0.000
 32275,-0.00035658,-0.00038110,-0.00008823,-0.00005684,-0.00016524,0.00
 056563,-0.00045121,0.00044047,0.00020270,0.00076427,-0.00244689,0.0015
 2039,0.00151796,-0.00418623,-0.00267237,-0.00520853,-0.17858882,-0.006
 80224,-0.14823715,-0.00777373,0.00078433,-0.01256820,0.00344455,0.0045
 3623,-0.00220218,-0.00011692,0.00082259,0.00109756,0.00461075,-0.00132
 841,-0.00040206,0.00001021,0.00001187,-0.00000875,0.00001331,0.0000099
 9,0.00001843,0.00001857,-0.00002920,-0.00004548,0.00001958,0.00000760,
 -0.00000076,-0.00004166,0.00004696,0.00006646,-0.00003204,-0.00001655,
 -0.00002787,0.00001617,-0.00004114,0.00001163,0.00035667,-0.00028590,-
 0.00032767,0.18839179,0.00005864,-0.00000593,-0.00000536,-0.00012466,0
 .00007955,-0.00010670,0.00005831,0.00002994,-0.00016410,-0.00025090,-0
 .00001877,0.00069529,-0.00341246,0.00161792,-0.00101021,0.00095173,0.0
 0004406,0.00006829,-0.00049380,0.00005567,-0.00004785,0.00033154,0.000
 35066,-0.00010467,-0.00021629,0.00020184,-0.00051858,0.00095745,-0.000
 03442,0.00048603,-0.00008213,0.00003448,-0.00046697,-0.01478903,-0.003
 04895,-0.01790821,-0.00454275,-0.05138544,-0.00932752,0.01742187,0.006
 62251,0.01537971,0.00369670,-0.00399234,-0.00039784,0.00014324,-0.0000
 6984,0.00084161,-0.00056924,-0.00385554,-0.00057360,-0.00001804,-0.000
 01859,0.00000465,-0.00000663,0.00000221,-0.00001587,0.00001643,-0.0000
 0290,0.00001566,-0.00000744,-0.00005895,-0.00002082,0.00001300,-0.0000
 1704,0.00003522,-0.00001450,0.00002707,0.00002051,-0.00007152,0.000107
 60,0.00012202,-0.00006064,0.00004280,-0.00004851,0.00129852,0.05191840
 ,-0.00031804,0.00040959,0.00004315,0.00078005,-0.00054100,-0.00022100,
 -0.00026469,0.00045107,0.00010128,-0.00041906,-0.00108967,0.00003128,0
 .00212848,0.00279890,-0.00007412,0.00119283,-0.00202172,-0.00174828,0.
 00065017,0.00023819,0.00037459,0.00021688,-0.00006767,0.00007906,0.000
 74230,-0.00130325,0.00194178,-0.00333277,0.00026150,-0.00132646,0.0034
 0150,-0.00193008,-0.00175976,-0.00493172,0.00629770,-0.00020584,-0.154
 22361,-0.00674615,-0.18518380,-0.00068382,-0.00578080,0.00778064,-0.00
 480477,-0.00122875,0.00196321,0.00022923,-0.00103061,-0.00123838,-0.00
 243134,-0.00097763,-0.00122706,0.00014082,-0.00001196,0.00000217,-0.00
 007560,-0.00013881,-0.00001967,-0.00011848,0.00000622,0.00014828,0.000
 00884,0.00004891,0.00011866,0.00003273,-0.00001855,-0.00008213,0.00007
 766,0.00003020,0.00005688,0.00008499,-0.00008390,-0.00020383,-0.000205
 95,0.00033207,0.00038151,0.16076735,0.01203964,0.18268432,-0.00001073,
 0.00006718,0.00000448,0.00002330,-0.00000559,-0.00004145,0.00001244,-0
 .00000357,-0.00000742,-0.00024866,0.00025039,0.00012041,0.00040194,0.0
 0103815,-0.00024304,0.00018982,0.00017236,0.00005199,0.00006617,-0.000
 03911,0.00007013,-0.00003409,-0.00005296,0.00001553,0.00003892,-0.0000
 4398,0.00008719,-0.00019969,-0.00001873,-0.00014471,0.00028263,-0.0000
 2995,-0.00008341,0.00164743,0.00433012,-0.00240989,0.00541117,0.016890
 70,0.00619815,-0.06144995,-0.05619591,-0.03198799,-0.00193549,-0.02106
 401,-0.01083836,-0.00184955,0.00054518,-0.00509701,-0.00149314,0.00076
 429,-0.00018110,0.00002214,0.00000228,-0.00000202,-0.00000622,-0.00000
 697,0.00000815,0.00000648,-0.00000838,0.00000471,0.00000670,0.00000390
 ,0.00001377,-0.00000798,0.00000322,-0.00000133,-0.00000225,0.00001530,
 0.00001465,-0.00003374,0.00002676,0.00001208,0.00010860,0.00008186,0.0
 0009001,-0.00100296,-0.00061186,0.00196209,0.06084604,-0.00007951,0.00
 011566,0.00002423,0.00013850,-0.00018672,-0.00004096,-0.00007625,0.000
 05028,0.00004155,0.00012917,-0.00019948,-0.00005134,0.00021910,-0.0007
 2152,-0.00027978,-0.00050162,-0.00022282,0.00002293,0.00019409,-0.0001
 1483,0.00007133,-0.00012058,-0.00014431,0.00008560,0.00011892,-0.00001
 258,0.00007249,-0.00031140,0.00009281,-0.00016654,0.00031266,0.0002180
 1,-0.00010291,0.00349691,0.00069407,0.00095769,-0.00550888,-0.01360599
 ,-0.00858658,-0.05552502,-0.28001800,-0.10651332,0.00197488,0.00454136
 ,0.00084103,0.00164711,0.00150049,-0.00130317,-0.00022492,0.00055221,-
 0.00003093,0.00003174,-0.00001652,-0.00000872,-0.00001732,-0.00005085,
 0.00000271,-0.00003104,-0.00002515,0.00002040,0.00000446,-0.00000227,0
 .00001200,0.00001280,0.00000043,0.00002568,0.00004140,0.00000924,-0.00
 000551,0.00002335,0.00001994,-0.00003122,0.00002583,-0.00000690,-0.000
 02634,-0.00077398,0.00069611,0.00003564,0.05561753,0.28641176,0.000016
 88,-0.00000479,-0.00000229,0.00002551,0.00001689,0.00003799,0.00002069
 ,-0.00000609,0.00004737,-0.00006610,0.00007323,-0.00015252,0.00044155,
 0.00013174,0.00088619,-0.00033207,-0.00032394,0.00019783,-0.00005118,-
 0.00010677,-0.00015608,-0.00023621,-0.00019017,0.00013028,0.00000913,0
 .00038842,-0.00038830,0.00025626,0.00014883,0.00020127,-0.00019033,0.0
 0044284,0.00004665,-0.00690965,-0.00107157,0.00233138,0.00251684,0.006
 61882,0.00778364,-0.03560209,-0.10609378,-0.09717433,-0.00214353,-0.01
 429159,-0.00097883,-0.00462393,0.00016792,0.00325371,0.00202078,-0.000
 43069,0.00040423,-0.00001949,-0.00001899,-0.00001875,-0.00000576,-0.00
 001762,0.00001545,-0.00003653,0.00000990,-0.00003991,-0.00001095,0.000
 01272,-0.00000509,0.00000833,0.00001513,0.00006765,0.00003625,-0.00001
 128,-0.00004126,0.00002923,0.00001514,0.00001758,-0.00009764,-0.000151
 66,-0.00020282,0.00224448,0.00118250,-0.00183571,0.04022944,0.11329907
 ,0.08799003,0.00010263,-0.00017288,-0.00002923,-0.00025197,0.00024372,
 0.00013098,0.00020288,-0.00016254,0.00007327,-0.00013346,-0.00001947,-
 0.00039566,-0.00162317,0.00010302,-0.00029947,0.00103126,0.00072930,0.
 00001711,-0.00039001,0.00018329,-0.00011167,0.00037589,0.00041521,-0.0
 0023007,-0.00014107,-0.00022193,0.00012482,0.00035096,-0.00011581,0.00
 014719,-0.00050337,-0.00062932,0.00031405,0.00073911,-0.00101422,0.000
 79067,-0.00250800,0.00063189,-0.00599471,-0.00335459,0.01978276,-0.004
 00585,-0.15385692,0.13328403,-0.03185581,0.01139054,-0.00974599,-0.001
 68614,-0.00010318,-0.00234367,-0.00282269,-0.00004482,0.00002532,-0.00
 000648,0.00004522,0.00007533,0.00002334,0.00007317,0.00000130,-0.00006
 968,0.00000502,-0.00001495,-0.00001827,-0.00001497,-0.00000577,-0.0000
 5084,-0.00006437,-0.00000006,0.00001771,-0.00002096,-0.00000758,0.0000
 3255,0.00000349,0.00003367,0.00003597,-0.00059375,0.00081376,0.0004419
 7,-0.00051345,-0.00050590,0.00189935,0.14997704,-0.00002812,0.00007982
 ,0.00001030,0.00007550,-0.00008580,-0.00002704,-0.00000591,0.00004523,
 0.00002638,-0.00006863,-0.00015938,0.00012038,0.00080689,-0.00024805,0
 .00028911,-0.00091112,-0.00025763,0.00016555,0.00033692,-0.00029618,0.
 00004718,-0.00035486,-0.00033962,0.00019465,0.00012778,0.00024284,-0.0
 0019869,-0.00016798,0.00013485,-0.00006961,0.00030632,0.00060121,-0.00
 016810,-0.00135245,0.00104392,-0.00052256,-0.00052775,-0.00041181,-0.0
 0266574,-0.00578903,0.00989022,-0.00301291,0.13442396,-0.23533012,0.03
 510800,0.01461295,-0.01152055,0.00385904,-0.00032498,-0.00315165,-0.00
 242092,0.00000881,-0.00002854,-0.00001637,-0.00002102,-0.00004644,-0.0
 0000148,-0.00003126,-0.00000447,-0.00000063,0.00000018,0.00000343,0.00
 000437,0.00000684,0.00001264,0.00007026,0.00006213,0.00000043,-0.00002
 396,0.00001459,0.00002744,-0.00002674,0.00002184,-0.00002699,-0.000066
 53,-0.00038631,0.00045691,0.00011475,-0.00068487,0.00040563,0.00052865
 ,-0.14031690,0.23893346,-0.00009619,0.00011760,0.00001256,0.00025687,-
 0.00016478,-0.00014173,-0.00022311,0.00021499,-0.00012120,0.00011181,0
 .00002616,0.00035499,0.00154689,0.00055056,0.00017760,-0.00034820,-0.0
 0083450,-0.00040308,0.00028216,0.00007251,0.00018505,-0.00007414,-0.00
 018268,0.00009798,0.00012163,-0.00013388,0.00026584,-0.00061335,0.0000
 0734,-0.00029754,0.00063081,0.00006628,-0.00033630,-0.00058749,-0.0002
 6197,-0.00086990,-0.00409551,-0.00013145,0.00423124,-0.01406797,0.0075
 9092,0.00611510,-0.03064791,0.03671930,-0.05850974,0.00323230,-0.01099
 192,0.00968684,-0.00213085,-0.00210773,0.00201734,0.00004863,-0.000001
 19,0.00002439,-0.00003231,-0.00004088,-0.00003277,-0.00003291,0.000018
 23,0.00008761,-0.00000352,0.00001275,0.00002661,0.00001421,-0.00000870
 ,-0.00002202,0.00002260,0.00000823,0.00001338,0.00001043,-0.00001635,-
 0.00003572,-0.00003019,0.00002593,0.00007856,0.00041093,0.00060741,-0.
 00145424,0.00195805,0.00116857,-0.00163556,0.04208803,-0.03252648,0.04
 179266,0.00009316,-0.00013997,-0.00003329,-0.00021525,0.00020591,0.000
 11270,0.00014710,-0.00011713,0.00003901,0.00002383,-0.00003302,-0.0002
 9349,0.00006259,-0.00082372,-0.00009755,-0.00033489,0.00000158,0.00035
 324,0.00014615,0.00017273,0.00022719,-0.00004738,-0.00013367,0.0000290
 0,-0.00003498,0.00002427,0.00000696,-0.00003661,-0.00003478,-0.0000364
 7,-0.00001866,-0.00001185,-0.00015509,0.00220096,0.00283750,-0.0041598
 5,0.00059931,0.00049026,0.00095316,0.00223189,0.00005705,-0.00154364,0
 .00103283,0.00128314,-0.00300214,-0.24011928,-0.01190185,-0.14204716,-
 0.00431689,-0.00160502,-0.00812655,-0.00003742,0.00000888,0.00000047,0
 .00002769,0.00005263,-0.00000152,0.00006683,0.00002853,-0.00003148,-0.
 00000231,0.00000908,0.00000049,0.00000910,-0.00001712,-0.00004657,-0.0
 0001119,0.00000783,0.00001367,-0.00001372,-0.00000368,0.00000375,-0.00
 005449,0.00002519,0.00003465,-0.00026214,0.00000049,0.00006558,-0.0000
 6845,-0.00004778,0.00013469,-0.00017307,-0.00023120,0.00142393,0.24013
 128,0.00000358,-0.00002881,-0.00001636,-0.00003023,-0.00000924,0.00004
 683,0.00007128,-0.00002773,0.00003156,-0.00000349,0.00012173,-0.000107
 25,0.00157960,0.00029300,0.00057166,-0.00011769,-0.00034788,0.00019218
 ,0.00016224,-0.00000874,-0.00003005,-0.00001406,-0.00003385,0.00004629
 ,-0.00000382,-0.00000872,0.00001062,-0.00004075,0.00003254,-0.00001078
 ,0.00003051,0.00003028,-0.00001214,0.00298026,-0.00309558,-0.00013498,
 0.00043194,-0.00102445,0.00023036,-0.00077580,-0.00423672,-0.00201366,
 -0.02140883,0.00137782,-0.01630048,-0.01239914,-0.05496622,-0.01231131
 ,0.02029990,0.00440683,0.01392489,0.00000333,-0.00000037,0.00000661,0.
 00001518,0.00000403,0.00000773,0.00005655,-0.00001476,0.00002477,-0.00
 000050,0.00000099,-0.00000095,0.00000594,0.00000837,0.00000344,0.00000
 629,-0.00000330,-0.00000679,0.00000443,0.00000085,-0.00000585,-0.00000
 683,-0.00001383,-0.00001899,-0.00004708,0.00010934,-0.00005188,-0.0009
 0366,0.00011558,-0.00044759,-0.00041686,0.00063014,0.00040024,0.010981
 28,0.05615862,0.00006516,-0.00013190,-0.00002469,-0.00012951,0.0001679
 3,0.00002920,-0.00003982,-0.00004920,-0.00010984,0.00002232,0.00049903
 ,0.00024152,-0.00153074,0.00080937,0.00021063,0.00200923,0.00049448,-0
 .00073180,-0.00093381,0.00008348,-0.00062106,0.00050065,0.00069127,-0.
 00032953,-0.00020514,-0.00004761,-0.00012916,0.00091605,-0.00014294,0.
 00049585,-0.00093190,-0.00062738,0.00060862,-0.00400783,-0.00321311,0.
 00527024,0.00057106,-0.00008735,-0.00051712,-0.00160386,-0.00144901,0.
 00159058,-0.00775690,0.00137177,0.00087293,-0.14106207,-0.01215442,-0.
 14657284,-0.00328431,-0.00287227,0.00531178,-0.00001687,0.00003354,0.0
 0002776,0.00003392,0.00006434,0.00001576,0.00003609,0.00002462,-0.0000
 1273,-0.00000611,-0.00001536,-0.00003534,-0.00004013,0.00003028,0.0000
 1097,-0.00008943,-0.00002191,-0.00000873,-0.00001323,-0.00000849,0.000
 07025,0.00002818,-0.00008444,-0.00007114,0.00008179,-0.00009194,0.0001
 4051,-0.00015326,0.00026960,-0.00034057,0.00081172,0.00075714,-0.00072
 007,0.15382574,0.01481937,0.13826559,0.00018235,-0.00029888,-0.0000573
 5,-0.00041106,0.00060572,0.00013734,0.00055994,0.00024931,-0.00025420,
 -0.00051283,-0.00015440,-0.00049623,0.00129931,-0.00164405,0.00167182,
 -0.00101558,-0.00006463,0.00004230,0.00036481,-0.00016534,0.00008897,-
 0.00016461,-0.00013855,0.00008250,0.00003805,0.00004175,-0.00001726,-0
 .00015974,0.00005548,-0.00004137,0.00014894,0.00016575,-0.00013472,-0.
 00360746,-0.01915827,-0.00963504,-0.00221476,0.00248029,-0.00287472,0.
 00015520,0.00013406,0.00117509,0.00095707,0.00339292,-0.00489955,0.009
 30066,0.01554110,0.00550528,-0.06601148,-0.05939292,-0.03789618,-0.000
 10078,0.00000493,-0.00003197,0.00006732,0.00010226,-0.00000783,0.00026
 997,-0.00007728,0.00007129,0.00000207,0.00000715,-0.00002017,-0.000003
 22,0.00000739,0.00000875,0.00001398,-0.00000926,-0.00001317,0.00000040
 ,-0.00000717,-0.00001183,-0.00001707,-0.00004917,-0.00002376,0.0003881
 9,-0.00048977,-0.00111362,-0.00020745,-0.00026425,0.00043604,-0.000006
 07,0.00039771,0.00082434,-0.00102600,-0.00046357,0.00290302,0.06170984
 ,0.00006416,-0.00002473,-0.00012798,-0.00008812,-0.00021765,0.00029337
 ,0.00061338,-0.00092588,0.00078103,0.00042404,0.00047603,0.00044769,-0
 .00063712,-0.00010904,0.00068455,-0.00006495,-0.00001876,-0.00009997,-
 0.00000405,-0.00000909,-0.00000727,-0.00002760,-0.00003232,0.00000028,
 -0.00000078,0.00005987,-0.00006108,0.00007193,-0.00003171,0.00004938,-
 0.00003028,0.00008267,-0.00000198,0.00238912,0.00331713,0.00186643,0.0
 0122988,0.00167822,-0.00023349,0.00041698,0.00004001,0.00053462,0.0038
 8484,-0.00221489,-0.00026039,-0.00636651,-0.01425410,-0.01086689,-0.05
 951659,-0.26872162,-0.11052229,0.00002310,-0.00000400,-0.00002976,0.00
 003494,-0.00000437,0.00007041,0.00004143,0.00005101,0.00017523,-0.0000
 0661,0.00001338,0.00000696,-0.00000405,0.00000475,0.00000340,-0.000004
 89,-0.00000013,0.00000282,-0.00000765,0.00000275,0.00000361,-0.0000395
 7,-0.00001777,-0.00000704,0.00026725,0.00011165,-0.00004196,-0.0001396
 7,-0.00009564,0.00011474,-0.00062873,-0.00060097,-0.00020451,-0.001085
 56,0.00053009,0.00088110,0.05919168,0.28091513,0.00024831,-0.00044046,
 -0.00016737,-0.00007392,0.00068573,0.00020569,-0.00024214,0.00066265,-
 0.00036834,-0.00088378,0.00009210,-0.00028143,0.00196764,0.00078986,-0
 .00149392,-0.00018999,-0.00001897,-0.00009677,0.00020680,0.00008791,0.
 00019333,0.00014414,0.00012692,-0.00007269,-0.00000931,-0.00032801,0.0
 0032287,-0.00027581,-0.00005646,-0.00020699,0.00024934,-0.00021914,-0.
 00002621,-0.00115562,-0.01222049,-0.00261602,-0.00401571,0.00062408,0.
 00132324,0.00176466,-0.00091047,-0.00022082,-0.00614476,-0.00059841,0.
 00409568,0.00008163,0.00755700,0.00913232,-0.03900341,-0.11389610,-0.0
 9610044,-0.00006511,-0.00001278,0.00005988,0.00004259,0.00007552,-0.00
 000428,0.00009557,0.00029253,-0.00009806,-0.00000852,-0.00000462,-0.00
 000794,0.00000061,-0.00001241,-0.00004982,-0.00002057,0.00001613,0.000
 03216,0.00000115,-0.00002117,-0.00000316,0.00003253,0.00006856,0.00014
 457,-0.00065717,-0.00068980,0.00073298,0.00035017,0.00019682,-0.000439
 22,0.00062784,0.00045199,-0.00058785,0.00235057,0.00115248,-0.00293758
 ,0.04458226,0.11654899,0.08953618\\0.00000673,-0.00000594,0.00000678,-
 0.00000614,-0.00000309,-0.00002020,-0.00000006,0.00001567,0.00001826,-
 0.00000213,0.00001714,0.00000171,0.00001915,-0.00002893,0.00000035,-0.
 00002064,-0.00000616,0.00000424,0.00001622,-0.00000426,0.00001057,-0.0
 0000993,-0.00000621,0.00000222,0.00000317,0.00000993,-0.00000888,0.000
 00326,0.00000202,0.00000052,0.00000442,0.00001038,-0.00000594,-0.00001
 633,0.00002178,-0.00000624,0.00000650,-0.00000940,0.00000349,-0.000008
 10,0.00000622,-0.00000142,0.00000153,-0.00000062,0.00000303,-0.0000012
 6,0.00000458,0.00000012,0.00000516,-0.00000870,0.00000017,0.00000059,0
 .00000010,0.00000109,0.00000008,0.00000047,0.00000061,-0.00000053,-0.0
 0001338,-0.00000497,-0.00000125,0.00000035,-0.00000304,0.00000140,-0.0
 0000051,-0.00000115,-0.00000030,0.00000102,0.00000109,-0.00000109,-0.0
 0000005,-0.00000236,-0.00000080,-0.00000063,-0.00000229,0.00000167,0.0
 0000263,-0.00000113,-0.00000010,-0.00000054,0.00000059,0.,0.,-0.000000
 22,-0.00000095,-0.00000196,0.00000066,-0.00000029,-0.00000190,0.000002
 34\\\@


      THE ONE-EYED VIEW OF OUR UNIVERSE SAYS YOU MUST NOT LOOK
      FAR AFIELD FOR PROBLEMS.  SUCH PROBLEMS MAY NEVER ARRIVE. 
      INSTEAD, TEND TO THE WOLF WITHIN YOUR FENCES.
      THE PACKS RANGING OUTSIDE MAY NOT EVEN EXIST.

                              -- THE AZHAR BOOK SHAMRA I:4
                                 CHILDREN OF DUNE, BY FRANK HERBERT
 Job cpu time:       0 days  3 hours 10 minutes  2.0 seconds.
 Elapsed time:       0 days  0 hours 11 minutes 59.8 seconds.
 File lengths (MBytes):  RWF=    800 Int=      0 D2E=      0 Chk=     16 Scr=     16
 Normal termination of Gaussian 16 at Wed May 11 06:43:06 2022.
