 Entering Gaussian System, Link 0=/mnt/gpfs3_amd/share/apps/amd/gaussian/g16-A.03/g16/g16
 Input=/scratch/rdu230/d3tales/high_throughput/runfiles//06IVBN/gaussian/mol_opt/opt_mol.com
 Output=/scratch/rdu230/d3tales/high_throughput/runfiles//06IVBN/gaussian/mol_opt/opt_mol.log
 Initial command:
 /mnt/gpfs3_amd/share/apps/amd/gaussian/g16-A.03/g16/l1.exe "/scratch/rdu230/d3tales/high_throughput/runfiles/06IVBN/gaussian/mol_opt/Gau-2511490.inp" -scrdir="/scratch/rdu230/d3tales/high_throughput/runfiles/06IVBN/gaussian/mol_opt/"
 Entering Link 1 = /mnt/gpfs3_amd/share/apps/amd/gaussian/g16-A.03/g16/l1.exe PID=   2511491.
  
 Copyright (c) 1988,1990,1992,1993,1995,1998,2003,2009,2016,
            Gaussian, Inc.  All Rights Reserved.
  
 This is part of the Gaussian(R) 16 program.  It is based on
 the Gaussian(R) 09 system (copyright 2009, Gaussian, Inc.),
 the Gaussian(R) 03 system (copyright 2003, Gaussian, Inc.),
 the Gaussian(R) 98 system (copyright 1998, Gaussian, Inc.),
 the Gaussian(R) 94 system (copyright 1995, Gaussian, Inc.),
 the Gaussian 92(TM) system (copyright 1992, Gaussian, Inc.),
 the Gaussian 90(TM) system (copyright 1990, Gaussian, Inc.),
 the Gaussian 88(TM) system (copyright 1988, Gaussian, Inc.),
 the Gaussian 86(TM) system (copyright 1986, Carnegie Mellon
 University), and the Gaussian 82(TM) system (copyright 1983,
 Carnegie Mellon University). Gaussian is a federally registered
 trademark of Gaussian, Inc.
  
 This software contains proprietary and confidential information,
 including trade secrets, belonging to Gaussian, Inc.
  
 This software is provided under written license and may be
 used, copied, transmitted, or stored only in accord with that
 written license.
  
 The following legend is applicable only to US Government
 contracts under FAR:
  
                    RESTRICTED RIGHTS LEGEND
  
 Use, reproduction and disclosure by the US Government is
 subject to restrictions as set forth in subparagraphs (a)
 and (c) of the Commercial Computer Software - Restricted
 Rights clause in FAR 52.227-19.
  
 Gaussian, Inc.
 340 Quinnipiac St., Bldg. 40, Wallingford CT 06492
  
  
 ---------------------------------------------------------------
 Warning -- This program may not be used in any manner that
 competes with the business of Gaussian, Inc. or will provide
 assistance to any competitor of Gaussian, Inc.  The licensee
 of this program is prohibited from giving any competitor of
 Gaussian, Inc. access to this program.  By using this program,
 the user acknowledges that Gaussian, Inc. is engaged in the
 business of creating and licensing software in the field of
 computational chemistry and represents and warrants to the
 licensee that it is not a competitor of Gaussian, Inc. and that
 it will not use this program in any manner prohibited above.
 ---------------------------------------------------------------
  

 Cite this work as:
 Gaussian 16, Revision A.03,
 M. J. Frisch, G. W. Trucks, H. B. Schlegel, G. E. Scuseria, 
 M. A. Robb, J. R. Cheeseman, G. Scalmani, V. Barone, 
 G. A. Petersson, H. Nakatsuji, X. Li, M. Caricato, A. V. Marenich, 
 J. Bloino, B. G. Janesko, R. Gomperts, B. Mennucci, H. P. Hratchian, 
 J. V. Ortiz, A. F. Izmaylov, J. L. Sonnenberg, D. Williams-Young, 
 F. Ding, F. Lipparini, F. Egidi, J. Goings, B. Peng, A. Petrone, 
 T. Henderson, D. Ranasinghe, V. G. Zakrzewski, J. Gao, N. Rega, 
 G. Zheng, W. Liang, M. Hada, M. Ehara, K. Toyota, R. Fukuda, 
 J. Hasegawa, M. Ishida, T. Nakajima, Y. Honda, O. Kitao, H. Nakai, 
 T. Vreven, K. Throssell, J. A. Montgomery, Jr., J. E. Peralta, 
 F. Ogliaro, M. J. Bearpark, J. J. Heyd, E. N. Brothers, K. N. Kudin, 
 V. N. Staroverov, T. A. Keith, R. Kobayashi, J. Normand, 
 K. Raghavachari, A. P. Rendell, J. C. Burant, S. S. Iyengar, 
 J. Tomasi, M. Cossi, J. M. Millam, M. Klene, C. Adamo, R. Cammi, 
 J. W. Ochterski, R. L. Martin, K. Morokuma, O. Farkas, 
 J. B. Foresman, and D. J. Fox, Gaussian, Inc., Wallingford CT, 2016.
 
 ******************************************
 Gaussian 16:  AM64L-G16RevA.03 25-Dec-2016
                11-May-2022 
 ******************************************
 %chk=/scratch/rdu230/d3tales/high_throughput/runfiles//06IVBN/gaussian/mol_opt/o
 pt_mol.chk
 %mem=48GB
 %nprocshared=16
 Will use up to   16 processors via shared memory.
 ---------------------------------------
 #P LC-wHPBE/Def2SVP opt scf(maxcyc=512)
 ---------------------------------------
 1/18=20,19=15,26=3,38=1/1,3;
 2/9=110,12=2,17=6,18=5,40=1/2;
 3/5=43,7=101,11=2,25=1,30=1,71=1,74=-71/1,2,3;
 4//1;
 5/5=2,7=512,38=5/2;
 6/7=2,8=2,9=2,10=2,28=1/1;
 7//1,2,3,16;
 1/18=20,19=15,26=3/3(2);
 2/9=110/2;
 99//99;
 2/9=110/2;
 3/5=43,7=101,11=2,25=1,30=1,71=1,74=-71/1,2,3;
 4/5=5,16=3,69=1/1;
 5/5=2,7=512,38=5/2;
 7//1,2,3,16;
 1/18=20,19=15,26=3/3(-5);
 2/9=110/2;
 6/7=2,8=2,9=2,10=2,19=2,28=1/1;
 99/9=1/99;
 Leave Link    1 at Wed May 11 03:18:32 2022, MaxMem=  6442450944 cpu:               4.7 elap:               0.3
 (Enter /mnt/gpfs3_amd/share/apps/amd/gaussian/g16-A.03/g16/l101.exe)
 ----------
 H13 C15 N2
 ----------
 Symbolic Z-matrix:
 Charge =  1 Multiplicity = 1
 N                     0.33376   4.15782   0.6451 
 C                     0.70776   3.01428  -0.09062 
 C                     1.468     2.52888  -1.15258 
 C                     0.66849   1.689    -0.35409 
 N                     0.24408   0.33995  -0.14314 
 C                    -1.14087   0.06512  -0.23486 
 C                    -1.85797   0.60207  -1.28606 
 C                    -3.22718   0.34413  -1.39705 
 C                    -3.88899  -0.44057  -0.47542 
 C                    -3.17532  -0.97341   0.56846 
 C                    -1.80596  -0.71674   0.6814 
 C                     1.16004  -0.71147   0.15058 
 C                     1.05086  -1.9283   -0.49474 
 C                     1.94335  -2.95253  -0.20842 
 C                     2.95757  -2.80922   0.71136 
 C                     3.06316  -1.59688   1.3516 
 C                     2.17231  -0.56602   1.06968 
 H                     0.40467   4.15651   1.67524 
 H                    -0.01024   4.99257   0.14381 
 H                     2.15671   2.69432  -1.97197 
 H                    -1.36581   1.22216  -2.02541 
 H                    -3.8064    0.75848  -2.21752 
 H                    -4.95653  -0.61677  -0.59876 
 H                    -3.69211  -1.58853   1.29163 
 H                    -1.2422   -1.13469   1.50163 
 H                     0.25247  -2.03606  -1.21649 
 H                     1.8342   -3.88965  -0.72653 
 H                     3.66219  -3.59588   0.94738 
 H                     3.84408  -1.40826   2.0954 
 H                     2.24587   0.3997    1.5708 
 
 Add atom      3 valence  3 ND=      2 dihedral       2      3      4     20
 ITRead=  0  0  0  0  0  0  0  0  0  0  0  0  0  0  0  0  0  0  0  0
 ITRead=  0  0  0  0  0  0  0  0  0  0
 MicOpt= -1 -1 -1 -1 -1 -1 -1 -1 -1 -1 -1 -1 -1 -1 -1 -1 -1 -1 -1 -1
 MicOpt= -1 -1 -1 -1 -1 -1 -1 -1 -1 -1
 NAtoms=     30 NQM=       30 NQMF=       0 NMMI=      0 NMMIF=      0
                NMic=       0 NMicF=      0.
                    Isotopes and Nuclear Properties:
 (Nuclear quadrupole moments (NQMom) in fm**2, nuclear magnetic moments (NMagM)
  in nuclear magnetons)

  Atom         1           2           3           4           5           6           7           8           9          10
 IAtWgt=          14          12          12          12          14          12          12          12          12          12
 AtmWgt=  14.0030740  12.0000000  12.0000000  12.0000000  14.0030740  12.0000000  12.0000000  12.0000000  12.0000000  12.0000000
 NucSpn=           2           0           0           0           2           0           0           0           0           0
 AtZEff=  -0.0000000  -0.0000000  -0.0000000  -0.0000000  -0.0000000  -0.0000000  -0.0000000  -0.0000000  -0.0000000  -0.0000000
 NQMom=    2.0440000   0.0000000   0.0000000   0.0000000   2.0440000   0.0000000   0.0000000   0.0000000   0.0000000   0.0000000
 NMagM=    0.4037610   0.0000000   0.0000000   0.0000000   0.4037610   0.0000000   0.0000000   0.0000000   0.0000000   0.0000000
 AtZNuc=   7.0000000   6.0000000   6.0000000   6.0000000   7.0000000   6.0000000   6.0000000   6.0000000   6.0000000   6.0000000

  Atom        11          12          13          14          15          16          17          18          19          20
 IAtWgt=          12          12          12          12          12          12          12           1           1           1
 AtmWgt=  12.0000000  12.0000000  12.0000000  12.0000000  12.0000000  12.0000000  12.0000000   1.0078250   1.0078250   1.0078250
 NucSpn=           0           0           0           0           0           0           0           1           1           1
 AtZEff=  -0.0000000  -0.0000000  -0.0000000  -0.0000000  -0.0000000  -0.0000000  -0.0000000  -0.0000000  -0.0000000  -0.0000000
 NQMom=    0.0000000   0.0000000   0.0000000   0.0000000   0.0000000   0.0000000   0.0000000   0.0000000   0.0000000   0.0000000
 NMagM=    0.0000000   0.0000000   0.0000000   0.0000000   0.0000000   0.0000000   0.0000000   2.7928460   2.7928460   2.7928460
 AtZNuc=   6.0000000   6.0000000   6.0000000   6.0000000   6.0000000   6.0000000   6.0000000   1.0000000   1.0000000   1.0000000

  Atom        21          22          23          24          25          26          27          28          29          30
 IAtWgt=           1           1           1           1           1           1           1           1           1           1
 AtmWgt=   1.0078250   1.0078250   1.0078250   1.0078250   1.0078250   1.0078250   1.0078250   1.0078250   1.0078250   1.0078250
 NucSpn=           1           1           1           1           1           1           1           1           1           1
 AtZEff=  -0.0000000  -0.0000000  -0.0000000  -0.0000000  -0.0000000  -0.0000000  -0.0000000  -0.0000000  -0.0000000  -0.0000000
 NQMom=    0.0000000   0.0000000   0.0000000   0.0000000   0.0000000   0.0000000   0.0000000   0.0000000   0.0000000   0.0000000
 NMagM=    2.7928460   2.7928460   2.7928460   2.7928460   2.7928460   2.7928460   2.7928460   2.7928460   2.7928460   2.7928460
 AtZNuc=   1.0000000   1.0000000   1.0000000   1.0000000   1.0000000   1.0000000   1.0000000   1.0000000   1.0000000   1.0000000
 Leave Link  101 at Wed May 11 03:18:32 2022, MaxMem=  6442450944 cpu:               2.9 elap:               0.2
 (Enter /mnt/gpfs3_amd/share/apps/amd/gaussian/g16-A.03/g16/l103.exe)

 GradGradGradGradGradGradGradGradGradGradGradGradGradGradGradGradGradGrad
 Berny optimization.
 Initialization pass.
                           ----------------------------
                           !    Initial Parameters    !
                           ! (Angstroms and Degrees)  !
 --------------------------                            --------------------------
 ! Name  Definition              Value          Derivative Info.                !
 --------------------------------------------------------------------------------
 ! R1    R(1,2)                  1.4103         estimate D2E/DX2                !
 ! R2    R(1,18)                 1.0326         estimate D2E/DX2                !
 ! R3    R(1,19)                 1.0327         estimate D2E/DX2                !
 ! R4    R(2,3)                  1.3933         estimate D2E/DX2                !
 ! R5    R(2,4)                  1.3518         estimate D2E/DX2                !
 ! R6    R(3,4)                  1.4079         estimate D2E/DX2                !
 ! R7    R(3,20)                 1.0831         estimate D2E/DX2                !
 ! R8    R(4,5)                  1.4299         estimate D2E/DX2                !
 ! R9    R(5,6)                  1.4149         estimate D2E/DX2                !
 ! R10   R(5,12)                 1.425          estimate D2E/DX2                !
 ! R11   R(6,7)                  1.3811         estimate D2E/DX2                !
 ! R12   R(6,11)                 1.3759         estimate D2E/DX2                !
 ! R13   R(7,8)                  1.3977         estimate D2E/DX2                !
 ! R14   R(7,21)                 1.0832         estimate D2E/DX2                !
 ! R15   R(8,9)                  1.3795         estimate D2E/DX2                !
 ! R16   R(8,22)                 1.0864         estimate D2E/DX2                !
 ! R17   R(9,10)                 1.3722         estimate D2E/DX2                !
 ! R18   R(9,23)                 1.089          estimate D2E/DX2                !
 ! R19   R(10,11)                1.3978         estimate D2E/DX2                !
 ! R20   R(10,24)                1.0809         estimate D2E/DX2                !
 ! R21   R(11,25)                1.0795         estimate D2E/DX2                !
 ! R22   R(12,13)                1.3817         estimate D2E/DX2                !
 ! R23   R(12,17)                1.375          estimate D2E/DX2                !
 ! R24   R(13,14)                1.3884         estimate D2E/DX2                !
 ! R25   R(13,26)                1.0817         estimate D2E/DX2                !
 ! R26   R(14,15)                1.3767         estimate D2E/DX2                !
 ! R27   R(14,27)                1.0764         estimate D2E/DX2                !
 ! R28   R(15,16)                1.3751         estimate D2E/DX2                !
 ! R29   R(15,28)                1.0821         estimate D2E/DX2                !
 ! R30   R(16,17)                1.3913         estimate D2E/DX2                !
 ! R31   R(16,29)                1.0948         estimate D2E/DX2                !
 ! R32   R(17,30)                1.0905         estimate D2E/DX2                !
 ! A1    A(2,1,18)             120.0809         estimate D2E/DX2                !
 ! A2    A(2,1,19)             119.3772         estimate D2E/DX2                !
 ! A3    A(18,1,19)            120.5419         estimate D2E/DX2                !
 ! A4    A(1,2,3)              145.5691         estimate D2E/DX2                !
 ! A5    A(1,2,4)              152.741          estimate D2E/DX2                !
 ! A6    A(2,3,20)             150.4994         estimate D2E/DX2                !
 ! A7    A(4,3,20)             151.797          estimate D2E/DX2                !
 ! A8    A(2,4,5)              154.802          estimate D2E/DX2                !
 ! A9    A(3,4,5)              144.5915         estimate D2E/DX2                !
 ! A10   A(4,5,6)              117.6596         estimate D2E/DX2                !
 ! A11   A(4,5,12)             122.3936         estimate D2E/DX2                !
 ! A12   A(6,5,12)             119.9468         estimate D2E/DX2                !
 ! A13   A(5,6,7)              118.8175         estimate D2E/DX2                !
 ! A14   A(5,6,11)             122.7069         estimate D2E/DX2                !
 ! A15   A(7,6,11)             118.4756         estimate D2E/DX2                !
 ! A16   A(6,7,8)              119.8222         estimate D2E/DX2                !
 ! A17   A(6,7,21)             120.4072         estimate D2E/DX2                !
 ! A18   A(8,7,21)             119.7706         estimate D2E/DX2                !
 ! A19   A(7,8,9)              121.4577         estimate D2E/DX2                !
 ! A20   A(7,8,22)             120.7872         estimate D2E/DX2                !
 ! A21   A(9,8,22)             117.7551         estimate D2E/DX2                !
 ! A22   A(8,9,10)             118.6588         estimate D2E/DX2                !
 ! A23   A(8,9,23)             119.1208         estimate D2E/DX2                !
 ! A24   A(10,9,23)            122.2204         estimate D2E/DX2                !
 ! A25   A(9,10,11)            119.9788         estimate D2E/DX2                !
 ! A26   A(9,10,24)            118.7681         estimate D2E/DX2                !
 ! A27   A(11,10,24)           121.2531         estimate D2E/DX2                !
 ! A28   A(6,11,10)            121.6068         estimate D2E/DX2                !
 ! A29   A(6,11,25)            118.2654         estimate D2E/DX2                !
 ! A30   A(10,11,25)           120.1277         estimate D2E/DX2                !
 ! A31   A(5,12,13)            120.1809         estimate D2E/DX2                !
 ! A32   A(5,12,17)            122.2039         estimate D2E/DX2                !
 ! A33   A(13,12,17)           117.6151         estimate D2E/DX2                !
 ! A34   A(12,13,14)           120.1719         estimate D2E/DX2                !
 ! A35   A(12,13,26)           117.2392         estimate D2E/DX2                !
 ! A36   A(14,13,26)           122.5889         estimate D2E/DX2                !
 ! A37   A(13,14,15)           122.3155         estimate D2E/DX2                !
 ! A38   A(13,14,27)           118.5441         estimate D2E/DX2                !
 ! A39   A(15,14,27)           119.1404         estimate D2E/DX2                !
 ! A40   A(14,15,16)           117.3509         estimate D2E/DX2                !
 ! A41   A(14,15,28)           123.3506         estimate D2E/DX2                !
 ! A42   A(16,15,28)           119.2985         estimate D2E/DX2                !
 ! A43   A(15,16,17)           120.6459         estimate D2E/DX2                !
 ! A44   A(15,16,29)           121.5331         estimate D2E/DX2                !
 ! A45   A(17,16,29)           117.8209         estimate D2E/DX2                !
 ! A46   A(12,17,16)           121.9006         estimate D2E/DX2                !
 ! A47   A(12,17,30)           116.7769         estimate D2E/DX2                !
 ! A48   A(16,17,30)           121.3225         estimate D2E/DX2                !
 ! D1    D(18,1,2,3)          -129.1751         estimate D2E/DX2                !
 ! D2    D(18,1,2,4)            50.8249         estimate D2E/DX2                !
 ! D3    D(19,1,2,3)            50.8253         estimate D2E/DX2                !
 ! D4    D(19,1,2,4)          -129.1748         estimate D2E/DX2                !
 ! D5    D(1,2,3,20)             0.0            estimate D2E/DX2                !
 ! D6    D(1,2,4,5)              0.0            estimate D2E/DX2                !
 ! D7    D(2,3,4,20)          -180.0            estimate D2E/DX2                !
 ! D8    D(20,3,4,5)             0.0            estimate D2E/DX2                !
 ! D9    D(2,4,5,6)             60.0004         estimate D2E/DX2                !
 ! D10   D(2,4,5,12)          -119.9996         estimate D2E/DX2                !
 ! D11   D(3,4,5,6)           -119.9996         estimate D2E/DX2                !
 ! D12   D(3,4,5,12)            60.0003         estimate D2E/DX2                !
 ! D13   D(4,5,6,7)             45.0            estimate D2E/DX2                !
 ! D14   D(4,5,6,11)          -134.9998         estimate D2E/DX2                !
 ! D15   D(12,5,6,7)          -134.9999         estimate D2E/DX2                !
 ! D16   D(12,5,6,11)           45.0002         estimate D2E/DX2                !
 ! D17   D(4,5,12,13)         -134.9997         estimate D2E/DX2                !
 ! D18   D(4,5,12,17)           45.0006         estimate D2E/DX2                !
 ! D19   D(6,5,12,13)           45.0002         estimate D2E/DX2                !
 ! D20   D(6,5,12,17)         -134.9994         estimate D2E/DX2                !
 ! D21   D(5,6,7,8)           -179.9998         estimate D2E/DX2                !
 ! D22   D(5,6,7,21)            -0.0001         estimate D2E/DX2                !
 ! D23   D(11,6,7,8)             0.0            estimate D2E/DX2                !
 ! D24   D(11,6,7,21)          179.9998         estimate D2E/DX2                !
 ! D25   D(5,6,11,10)          179.9998         estimate D2E/DX2                !
 ! D26   D(5,6,11,25)            0.0            estimate D2E/DX2                !
 ! D27   D(7,6,11,10)            0.0            estimate D2E/DX2                !
 ! D28   D(7,6,11,25)         -179.9999         estimate D2E/DX2                !
 ! D29   D(6,7,8,9)              0.0            estimate D2E/DX2                !
 ! D30   D(6,7,8,22)           179.9999         estimate D2E/DX2                !
 ! D31   D(21,7,8,9)          -179.9997         estimate D2E/DX2                !
 ! D32   D(21,7,8,22)            0.0002         estimate D2E/DX2                !
 ! D33   D(7,8,9,10)             0.0            estimate D2E/DX2                !
 ! D34   D(7,8,9,23)           179.9995         estimate D2E/DX2                !
 ! D35   D(22,8,9,10)         -180.0            estimate D2E/DX2                !
 ! D36   D(22,8,9,23)           -0.0004         estimate D2E/DX2                !
 ! D37   D(8,9,10,11)            0.0            estimate D2E/DX2                !
 ! D38   D(8,9,10,24)         -179.9999         estimate D2E/DX2                !
 ! D39   D(23,9,10,11)        -179.9995         estimate D2E/DX2                !
 ! D40   D(23,9,10,24)           0.0006         estimate D2E/DX2                !
 ! D41   D(9,10,11,6)            0.0            estimate D2E/DX2                !
 ! D42   D(9,10,11,25)         179.9998         estimate D2E/DX2                !
 ! D43   D(24,10,11,6)         179.9999         estimate D2E/DX2                !
 ! D44   D(24,10,11,25)         -0.0003         estimate D2E/DX2                !
 ! D45   D(5,12,13,14)        -179.9996         estimate D2E/DX2                !
 ! D46   D(5,12,13,26)           0.0004         estimate D2E/DX2                !
 ! D47   D(17,12,13,14)          0.0001         estimate D2E/DX2                !
 ! D48   D(17,12,13,26)       -180.0            estimate D2E/DX2                !
 ! D49   D(5,12,17,16)         179.9997         estimate D2E/DX2                !
 ! D50   D(5,12,17,30)          -0.0003         estimate D2E/DX2                !
 ! D51   D(13,12,17,16)          0.0            estimate D2E/DX2                !
 ! D52   D(13,12,17,30)       -179.9999         estimate D2E/DX2                !
 ! D53   D(12,13,14,15)         -0.0001         estimate D2E/DX2                !
 ! D54   D(12,13,14,27)       -179.9996         estimate D2E/DX2                !
 ! D55   D(26,13,14,15)        179.9999         estimate D2E/DX2                !
 ! D56   D(26,13,14,27)          0.0004         estimate D2E/DX2                !
 ! D57   D(13,14,15,16)          0.0001         estimate D2E/DX2                !
 ! D58   D(13,14,15,28)       -179.9998         estimate D2E/DX2                !
 ! D59   D(27,14,15,16)        179.9996         estimate D2E/DX2                !
 ! D60   D(27,14,15,28)         -0.0003         estimate D2E/DX2                !
 ! D61   D(14,15,16,17)         -0.0001         estimate D2E/DX2                !
 ! D62   D(14,15,16,29)        179.9994         estimate D2E/DX2                !
 ! D63   D(28,15,16,17)        179.9998         estimate D2E/DX2                !
 ! D64   D(28,15,16,29)         -0.0007         estimate D2E/DX2                !
 ! D65   D(15,16,17,12)          0.0            estimate D2E/DX2                !
 ! D66   D(15,16,17,30)        179.9999         estimate D2E/DX2                !
 ! D67   D(29,16,17,12)       -179.9995         estimate D2E/DX2                !
 ! D68   D(29,16,17,30)          0.0004         estimate D2E/DX2                !
 --------------------------------------------------------------------------------
 Trust Radius=3.00D-01 FncErr=1.00D-07 GrdErr=1.00D-06 EigMax=2.50D+02 EigMin=1.00D-04
 Number of steps in this run=    158 maximum allowed number of steps=    180.
 GradGradGradGradGradGradGradGradGradGradGradGradGradGradGradGradGradGrad

 Leave Link  103 at Wed May 11 03:18:32 2022, MaxMem=  6442450944 cpu:               0.1 elap:               0.0
 (Enter /mnt/gpfs3_amd/share/apps/amd/gaussian/g16-A.03/g16/l202.exe)
                          Input orientation:                          
 ---------------------------------------------------------------------
 Center     Atomic      Atomic             Coordinates (Angstroms)
 Number     Number       Type             X           Y           Z
 ---------------------------------------------------------------------
      1          7           0        0.333762    4.157815    0.645095
      2          6           0        0.707760    3.014278   -0.090620
      3          6           0        1.467998    2.528881   -1.152582
      4          6           0        0.668485    1.689002   -0.354088
      5          7           0        0.244077    0.339947   -0.143144
      6          6           0       -1.140873    0.065116   -0.234857
      7          6           0       -1.857971    0.602073   -1.286055
      8          6           0       -3.227183    0.344125   -1.397051
      9          6           0       -3.888993   -0.440571   -0.475421
     10          6           0       -3.175319   -0.973413    0.568464
     11          6           0       -1.805960   -0.716742    0.681401
     12          6           0        1.160043   -0.711465    0.150577
     13          6           0        1.050865   -1.928304   -0.494735
     14          6           0        1.943352   -2.952527   -0.208423
     15          6           0        2.957570   -2.809216    0.711355
     16          6           0        3.063161   -1.596884    1.351595
     17          6           0        2.172311   -0.566018    1.069685
     18          1           0        0.404668    4.156511    1.675244
     19          1           0       -0.010236    4.992570    0.143809
     20          1           0        2.156712    2.694321   -1.971971
     21          1           0       -1.365805    1.222156   -2.025413
     22          1           0       -3.806399    0.758476   -2.217515
     23          1           0       -4.956527   -0.616774   -0.598758
     24          1           0       -3.692109   -1.588525    1.291629
     25          1           0       -1.242201   -1.134689    1.501629
     26          1           0        0.252470   -2.036058   -1.216488
     27          1           0        1.834199   -3.889648   -0.726531
     28          1           0        3.662191   -3.595875    0.947383
     29          1           0        3.844079   -1.408261    2.095404
     30          1           0        2.245873    0.399700    1.570799
 ---------------------------------------------------------------------
                    Distance matrix (angstroms):
                    1          2          3          4          5
     1  N    0.000000
     2  C    1.410258   0.000000
     3  C    2.677977   1.393318   0.000000
     4  C    2.684296   1.351782   1.407910   0.000000
     5  N    3.899420   2.714739   2.703402   1.429884   0.000000
     6  C    4.438361   3.483648   3.703858   2.434132   1.414931
     7  C    4.601775   3.718975   3.846099   2.903955   2.406982
     8  C    5.603117   4.931557   5.184366   4.251199   3.690792
     9  C    6.342899   5.763175   6.162268   5.031939   4.219228
    10  C    6.216834   5.604853   6.065349   4.765961   3.731430
    11  C    5.323630   4.564572   4.961488   3.603154   2.449310
    12  C    4.963585   3.760837   3.506123   2.501711   1.425038
    13  C    6.233321   4.970930   4.524739   3.640178   2.432999
    14  C    7.340043   6.094533   5.582404   4.815630   3.705696
    15  C    7.445017   6.294274   5.847082   5.158395   4.243871
    16  C    6.408223   5.375008   5.083049   4.409181   3.732666
    17  C    5.086761   4.038532   3.874652   3.061656   2.451492
    18  H    1.032587   2.124814   3.431683   3.205681   4.230660
    19  H    1.032685   2.117573   3.152074   3.409124   4.668396
    20  H    3.509130   2.396104   1.083095   2.417236   3.542013
    21  H    4.317202   3.354817   3.240340   2.673875   2.629249
    22  H    6.073794   5.476309   5.664599   4.935871   4.569960
    23  H    7.234019   6.747362   7.174705   6.084178   5.307465
    24  H    7.045997   6.515770   7.039453   5.697837   4.612064
    25  H    5.588194   4.852992   5.273686   3.881705   2.662490
    26  H    6.468088   5.194301   4.724432   3.846151   2.607209
    27  H    8.300261   7.024062   6.443069   5.711299   4.556128
    28  H    8.443313   7.314386   6.836444   6.211765   5.325734
    29  H    6.738466   5.845857   5.629943   5.067292   4.585558
    30  H    4.317004   3.458630   3.543347   2.802792   2.635974
                    6          7          8          9         10
     6  C    0.000000
     7  C    1.381148   0.000000
     8  C    2.404419   1.397712   0.000000
     9  C    2.804595   2.422661   1.379544   0.000000
    10  C    2.421330   2.767093   2.366822   1.372205   0.000000
    11  C    1.375926   2.369148   2.732266   2.398653   1.397776
    12  C    2.458831   3.591337   4.770448   5.094902   4.363326
    13  C    2.974050   3.935775   4.927454   5.159062   4.461260
    14  C    4.315010   5.314746   6.246214   6.355900   5.542674
    15  C    5.094540   6.230247   7.255350   7.341277   6.403352
    16  C    4.790926   6.000846   7.133793   7.280624   6.318278
    17  C    3.616262   4.812185   6.005638   6.256396   5.386496
    18  H    4.772494   5.150035   6.096198   6.647860   6.352747
    19  H    5.069668   4.973439   5.859269   6.704269   6.766907
    20  H    4.561179   4.578828   5.902566   6.972644   6.952455
    21  H    2.143695   1.083227   2.151861   3.396117   3.850073
    22  H    3.393628   2.165283   1.086434   2.116466   3.340566
    23  H    3.893150   3.399855   2.133361   1.088985   2.159236
    24  H    3.401984   3.848017   3.343694   2.116371   1.080927
    25  H    2.113098   3.341661   3.811744   3.375801   2.152615
    26  H    2.705538   3.379132   4.219699   4.499608   4.008117
    27  H    4.973224   5.841296   6.632648   6.686861   5.939420
    28  H    6.153858   7.285822   8.275472   8.306666   7.332969
    29  H    5.696552   6.927415   8.079037   8.206459   7.196707
    30  H    3.852582   5.004409   6.226200   6.521476   5.681500
                   11         12         13         14         15
    11  C    0.000000
    12  C    3.013134   0.000000
    13  C    3.318528   1.381682   0.000000
    14  C    4.455094   2.401002   1.388359   0.000000
    15  C    5.202938   2.818889   2.422020   1.376651   0.000000
    16  C    4.993210   2.418319   2.751020   2.350616   1.375066
    17  C    4.000015   1.374991   2.358151   2.716875   2.403533
    18  H    5.442719   5.156781   6.492407   7.513599   7.481159
    19  H    6.009149   5.822853   7.030802   8.189331   8.366472
    20  H    5.863318   4.134965   4.977327   5.919672   6.174992
    21  H    3.358557   3.854054   4.255428   5.628495   6.514095
    22  H    3.818604   5.695097   5.812037   7.132155   8.188894
    23  H    3.402187   6.163027   6.149772   7.294959   8.316016
    24  H    2.165627   5.061088   5.079601   5.989080   6.785649
    25  H    1.079480   2.788411   3.142204   4.046796   4.589842
    26  H    3.095111   2.108815   1.081653   2.171449   3.410560
    27  H    5.029947   3.365212   2.124667   1.076358   2.120569
    28  H    6.185534   3.900701   3.417531   2.168915   1.082142
    29  H    5.865198   3.387023   3.844647   3.362312   2.159668
    30  H    4.295908   2.104933   3.333778   3.807174   3.397396
                   16         17         18         19         20
    16  C    0.000000
    17  C    1.391320   0.000000
    18  H    6.346171   5.078734   0.000000
    19  H    7.370578   6.043067   1.793442   0.000000
    20  H    5.502925   4.458893   4.302306   3.801860   0.000000
    21  H    6.242348   5.029459   5.043796   4.556217   3.818148
    22  H    8.091793   6.950176   6.665831   6.157455   6.274271
    23  H    8.311431   7.321653   7.529791   7.515447   7.965377
    24  H    6.755541   5.957030   7.066554   7.627876   7.950004
    25  H    4.332699   3.488389   5.544287   6.395679   6.187069
    26  H    3.832481   3.327671   6.836168   7.163870   5.154937
    27  H    3.329523   3.793050   8.517791   9.113354   6.708486
    28  H    2.125603   3.378570   8.440422   9.375171   7.096172
    29  H    1.094835   2.134545   6.555362   7.722377   6.018465
    30  H    2.168492   1.090476   4.185042   5.312324   4.221902
                   21         22         23         24         25
    21  H    0.000000
    22  H    2.491666   0.000000
    23  H    4.279053   2.415467   0.000000
    24  H    4.930962   4.223218   2.473179   0.000000
    25  H    4.243822   4.898083   4.298381   2.500423   0.000000
    26  H    3.726813   5.028508   5.434115   4.695811   3.230274
    27  H    6.169089   7.459520   7.539363   6.317295   4.692412
    28  H    7.571769   9.206345   9.249210   7.631100   5.515223
    29  H    7.144447   9.045763   9.237728   7.581074   5.128124
    30  H    5.162692   7.149129   7.590439   6.268222   3.811272
                   26         27         28         29         30
    26  H    0.000000
    27  H    2.485502   0.000000
    28  H    4.329153   2.495966   0.000000
    29  H    4.925689   4.261481   2.477234   0.000000
    30  H    4.204229   4.883207   4.284766   2.469453   0.000000
 Stoichiometry    C15H13N2(1+)
 Framework group  C1[X(C15H13N2)]
 Deg. of freedom    84
 Full point group                 C1      NOp   1
 Largest Abelian subgroup         C1      NOp   1
 Largest concise Abelian subgroup C1      NOp   1
                         Standard orientation:                         
 ---------------------------------------------------------------------
 Center     Atomic      Atomic             Coordinates (Angstroms)
 Number     Number       Type             X           Y           Z
 ---------------------------------------------------------------------
      1          7           0       -1.701913    3.713558    0.897606
      2          6           0       -0.944687    2.899855    0.029663
      3          6           0       -0.254000    2.840005   -1.178933
      4          6           0       -0.357327    1.732423   -0.315917
      5          7           0        0.004562    0.361546   -0.130713
      6          6           0       -1.041632   -0.582303   -0.001645
      7          6           0       -2.110996   -0.514170   -0.873073
      8          6           0       -3.155989   -1.436013   -0.764471
      9          6           0       -3.148366   -2.422652    0.199701
     10          6           0       -2.085313   -2.489189    1.064824
     11          6           0       -1.039194   -1.568316    0.958014
     12          6           0        1.361889   -0.068789   -0.074069
     13          6           0        1.765258   -1.188990   -0.775130
     14          6           0        3.087694   -1.608085   -0.719803
     15          6           0        4.040057   -0.943335    0.019306
     16          6           0        3.635003    0.171023    0.715684
     17          6           0        2.311405    0.596788    0.664869
     18          1           0       -1.451803    3.776814    1.897446
     19          1           0       -2.505699    4.242897    0.523218
     20          1           0        0.092486    3.310365   -2.090966
     21          1           0       -2.145042    0.249508   -1.640548
     22          1           0       -4.004698   -1.396852   -1.441597
     23          1           0       -3.982465   -3.120964    0.249978
     24          1           0       -2.077525   -3.261567    1.820981
     25          1           0       -0.201750   -1.618445    1.637316
     26          1           0        1.013425   -1.707865   -1.354343
     27          1           0        3.373304   -2.484124   -1.276157
     28          1           0        5.074873   -1.255038    0.074346
     29          1           0        4.335335    0.751186    1.325282
     30          1           0        1.978214    1.478849    1.212673
 ---------------------------------------------------------------------
 Rotational constants (GHZ):           0.5601950           0.4046814           0.2648941
 Leave Link  202 at Wed May 11 03:18:32 2022, MaxMem=  6442450944 cpu:               0.1 elap:               0.0
 (Enter /mnt/gpfs3_amd/share/apps/amd/gaussian/g16-A.03/g16/l301.exe)
 Standard basis: def2SVP (5D, 7F)
 Ernie: Thresh=  0.10000D-02 Tol=  0.10000D-05 Strict=F.
 There are   320 symmetry adapted cartesian basis functions of A   symmetry.
 There are   303 symmetry adapted basis functions of A   symmetry.
   303 basis functions,   516 primitive gaussians,   320 cartesian basis functions
    58 alpha electrons       58 beta electrons
       nuclear repulsion energy      1076.6785854109 Hartrees.
 IExCor=33909 DFT=T Ex+Corr=LC-wHPBE ExCW=0 ScaHFX=  1.000000
 ScaDFX=  1.000000  1.000000  1.000000  1.000000 ScalE2=  1.000000  1.000000
 IRadAn=      5 IRanWt=     -1 IRanGd=            0 ICorTp=0 IEmpDi=  4
 HFx  wShort=  0.000000 wLong=  0.400000 cFull=  0.000000 cShort=  0.000000 cLong=  1.000000
 DFx  wShort=  0.000000 wLong=  0.400000 cFull=  0.000000 cShort=  1.000000 cLong=  0.000000
 NAtoms=   30 NActive=   30 NUniq=   30 SFac= 1.00D+00 NAtFMM=   60 NAOKFM=F Big=F
 Integral buffers will be    131072 words long.
 Raffenetti 2 integral format.
 Two-electron integral symmetry is turned on.
 Leave Link  301 at Wed May 11 03:18:32 2022, MaxMem=  6442450944 cpu:               0.4 elap:               0.0
 (Enter /mnt/gpfs3_amd/share/apps/amd/gaussian/g16-A.03/g16/l302.exe)
 NPDir=0 NMtPBC=     1 NCelOv=     1 NCel=       1 NClECP=     1 NCelD=      1
         NCelK=      1 NCelE2=     1 NClLst=     1 CellRange=     0.0.
 One-electron integrals computed using PRISM.
 One-electron integral symmetry used in STVInt
   1 Symmetry operations used in ECPInt.
 ECPInt:  NShTT=   10011 NPrTT=   36575 LenC2=    9378 LenP2D=   24388.
 LDataN:  DoStor=T MaxTD1= 4 Len=   56
 NBasis=   303 RedAO= T EigKep=  2.29D-04  NBF=   303
 NBsUse=   303 1.00D-06 EigRej= -1.00D+00 NBFU=   303
 Precomputing XC quadrature grid using
 IXCGrd= 4 IRadAn=           5 IRanWt=          -1 IRanGd=           0 AccXCQ= 0.00D+00.
 Generated NRdTot=       0 NPtTot=           0 NUsed=           0 NTot=          32
 NSgBfM=   319   319   319   319   319 MxSgAt=    30 MxSgA2=    30.
 Leave Link  302 at Wed May 11 03:18:33 2022, MaxMem=  6442450944 cpu:              10.5 elap:               0.7
 (Enter /mnt/gpfs3_amd/share/apps/amd/gaussian/g16-A.03/g16/l303.exe)
 DipDrv:  MaxL=1.
 Leave Link  303 at Wed May 11 03:18:33 2022, MaxMem=  6442450944 cpu:               0.4 elap:               0.0
 (Enter /mnt/gpfs3_amd/share/apps/amd/gaussian/g16-A.03/g16/l401.exe)
 ExpMin= 1.22D-01 ExpMax= 1.71D+03 ExpMxC= 2.58D+02 IAcc=3 IRadAn=         5 AccDes= 0.00D+00
 Harris functional with IExCor=33909 and IRadAn=       5 diagonalized for initial guess.
 HarFok:  IExCor=33909 AccDes= 0.00D+00 IRadAn=         5 IDoV= 1 UseB2=F ITyADJ=14
 ICtDFT=  3500011 ScaDFX=  1.000000  1.000000  1.000000  1.000000
 FoFCou: FMM=F IPFlag=           0 FMFlag=      100000 FMFlg1=           0
         NFxFlg=           0 DoJE=T BraDBF=F KetDBF=T FulRan=T
         wScrn=  0.000000 ICntrl=       500 IOpCl=  0 I1Cent=   200000004 NGrid=           0
         NMat0=    1 NMatS0=      1 NMatT0=    0 NMatD0=    1 NMtDS0=    0 NMtDT0=    0
 Petite list used in FoFCou.
 Harris En= -664.728189272054    
 JPrj=0 DoOrth=F DoCkMO=F.
 Leave Link  401 at Wed May 11 03:18:36 2022, MaxMem=  6442450944 cpu:              43.5 elap:               2.8
 (Enter /mnt/gpfs3_amd/share/apps/amd/gaussian/g16-A.03/g16/l502.exe)
 Integral symmetry usage will be decided dynamically.
 Closed shell SCF:
 Using DIIS extrapolation, IDIIS=  1040.
 NGot=  6442450944 LenX=  6442237618 LenY=  6442134777
 Requested convergence on RMS density matrix=1.00D-08 within 512 cycles.
 Requested convergence on MAX density matrix=1.00D-06.
 Requested convergence on             energy=1.00D-06.
 No special actions if energy rises.
 Fock matrices will be formed incrementally for  20 cycles.
 Integral accuracy reduced to 1.0D-05 until final iterations.

 Cycle   1  Pass 0  IDiag  1:
 FoFJK:  IHMeth= 1 ICntrl=       0 DoSepK=T KAlg= 0 I1Cent=           0 FoldK=F
 IRaf=         1 NMat=       1 IRICut=       1 DoRegI=T DoRafI=F ISym2E= 0 IDoP0=0 IntGTp=1.
 FoFCou: FMM=F IPFlag=           0 FMFlag=      100000 FMFlg1=           0
         NFxFlg=           0 DoJE=T BraDBF=F KetDBF=F FulRan=T
         wScrn=  0.000000 ICntrl=       500 IOpCl=  0 I1Cent=           0 NGrid=           0
         NMat0=    1 NMatS0=      1 NMatT0=    0 NMatD0=    1 NMtDS0=    0 NMtDT0=    0
 Symmetry not used in FoFCou.
 E= -687.391646237998    
 DIIS: error= 1.52D-02 at cycle   1 NSaved=   1.
 NSaved= 1 IEnMin= 1 EnMin= -687.391646237998     IErMin= 1 ErrMin= 1.52D-02
 ErrMax= 1.52D-02  0.00D+00 EMaxC= 1.00D-01 BMatC= 1.62D-01 BMatP= 1.62D-01
 IDIUse=3 WtCom= 8.48D-01 WtEn= 1.52D-01
 Coeff-Com:  0.100D+01
 Coeff-En:   0.100D+01
 Coeff:      0.100D+01
 Gap=     0.473 Goal=   None    Shift=    0.000
 GapD=    0.473 DampG=2.000 DampE=0.500 DampFc=1.0000 IDamp=-1.
 RMSDP=5.04D-03 MaxDP=1.10D-01              OVMax= 1.52D-01

 Cycle   2  Pass 0  IDiag  1:
 RMSU=  4.60D-03    CP:  9.02D-01
 E= -687.443418672878     Delta-E=       -0.051772434880 Rises=F Damp=F
 DIIS: error= 1.81D-02 at cycle   2 NSaved=   2.
 NSaved= 2 IEnMin= 2 EnMin= -687.443418672878     IErMin= 1 ErrMin= 1.52D-02
 ErrMax= 1.81D-02  0.00D+00 EMaxC= 1.00D-01 BMatC= 1.40D-01 BMatP= 1.62D-01
 IDIUse=3 WtCom= 8.19D-01 WtEn= 1.81D-01
 Coeff-Com:  0.480D+00 0.520D+00
 Coeff-En:   0.401D+00 0.599D+00
 Coeff:      0.465D+00 0.535D+00
 Gap=     0.310 Goal=   None    Shift=    0.000
 RMSDP=1.56D-03 MaxDP=5.13D-02 DE=-5.18D-02 OVMax= 8.48D-02

 Cycle   3  Pass 0  IDiag  1:
 RMSU=  1.33D-03    CP:  9.05D-01  8.23D-01
 E= -687.573795709506     Delta-E=       -0.130377036628 Rises=F Damp=F
 DIIS: error= 4.39D-03 at cycle   3 NSaved=   3.
 NSaved= 3 IEnMin= 3 EnMin= -687.573795709506     IErMin= 3 ErrMin= 4.39D-03
 ErrMax= 4.39D-03  0.00D+00 EMaxC= 1.00D-01 BMatC= 4.74D-03 BMatP= 1.40D-01
 IDIUse=3 WtCom= 9.56D-01 WtEn= 4.39D-02
 Coeff-Com:  0.103D+00 0.184D+00 0.713D+00
 Coeff-En:   0.000D+00 0.000D+00 0.100D+01
 Coeff:      0.983D-01 0.176D+00 0.726D+00
 Gap=     0.308 Goal=   None    Shift=    0.000
 RMSDP=4.33D-04 MaxDP=1.70D-02 DE=-1.30D-01 OVMax= 3.03D-02

 Cycle   4  Pass 0  IDiag  1:
 RMSU=  3.29D-04    CP:  9.00D-01  8.79D-01  9.60D-01
 E= -687.578508468212     Delta-E=       -0.004712758706 Rises=F Damp=F
 DIIS: error= 1.13D-03 at cycle   4 NSaved=   4.
 NSaved= 4 IEnMin= 4 EnMin= -687.578508468212     IErMin= 4 ErrMin= 1.13D-03
 ErrMax= 1.13D-03  0.00D+00 EMaxC= 1.00D-01 BMatC= 7.04D-04 BMatP= 4.74D-03
 IDIUse=3 WtCom= 9.89D-01 WtEn= 1.13D-02
 Coeff-Com: -0.205D-01-0.108D-01 0.267D+00 0.764D+00
 Coeff-En:   0.000D+00 0.000D+00 0.000D+00 0.100D+01
 Coeff:     -0.203D-01-0.107D-01 0.264D+00 0.767D+00
 Gap=     0.301 Goal=   None    Shift=    0.000
 RMSDP=1.87D-04 MaxDP=4.85D-03 DE=-4.71D-03 OVMax= 8.33D-03

 Cycle   5  Pass 0  IDiag  1:
 RMSU=  9.19D-05    CP:  8.97D-01  8.94D-01  1.06D+00  8.88D-01
 E= -687.579346117548     Delta-E=       -0.000837649336 Rises=F Damp=F
 DIIS: error= 2.77D-04 at cycle   5 NSaved=   5.
 NSaved= 5 IEnMin= 5 EnMin= -687.579346117548     IErMin= 5 ErrMin= 2.77D-04
 ErrMax= 2.77D-04  0.00D+00 EMaxC= 1.00D-01 BMatC= 3.07D-05 BMatP= 7.04D-04
 IDIUse=3 WtCom= 9.97D-01 WtEn= 2.77D-03
 Coeff-Com: -0.116D-01-0.157D-01 0.157D-01 0.177D+00 0.835D+00
 Coeff-En:   0.000D+00 0.000D+00 0.000D+00 0.000D+00 0.100D+01
 Coeff:     -0.115D-01-0.157D-01 0.156D-01 0.176D+00 0.836D+00
 Gap=     0.303 Goal=   None    Shift=    0.000
 RMSDP=4.95D-05 MaxDP=1.04D-03 DE=-8.38D-04 OVMax= 4.21D-03

 Cycle   6  Pass 0  IDiag  1:
 RMSU=  3.09D-05    CP:  8.96D-01  8.97D-01  1.07D+00  9.59D-01  1.16D+00
 E= -687.579412923029     Delta-E=       -0.000066805482 Rises=F Damp=F
 DIIS: error= 1.40D-04 at cycle   6 NSaved=   6.
 NSaved= 6 IEnMin= 6 EnMin= -687.579412923029     IErMin= 6 ErrMin= 1.40D-04
 ErrMax= 1.40D-04  0.00D+00 EMaxC= 1.00D-01 BMatC= 7.94D-06 BMatP= 3.07D-05
 IDIUse=3 WtCom= 9.99D-01 WtEn= 1.40D-03
 Coeff-Com: -0.175D-02-0.537D-02-0.332D-01-0.447D-01 0.291D+00 0.794D+00
 Coeff-En:   0.000D+00 0.000D+00 0.000D+00 0.000D+00 0.000D+00 0.100D+01
 Coeff:     -0.175D-02-0.536D-02-0.332D-01-0.447D-01 0.291D+00 0.794D+00
 Gap=     0.304 Goal=   None    Shift=    0.000
 RMSDP=2.21D-05 MaxDP=5.08D-04 DE=-6.68D-05 OVMax= 2.16D-03

 Cycle   7  Pass 0  IDiag  1:
 RMSU=  1.28D-05    CP:  8.96D-01  8.97D-01  1.08D+00  9.73D-01  1.32D+00
                    CP:  1.16D+00
 E= -687.579430756348     Delta-E=       -0.000017833319 Rises=F Damp=F
 DIIS: error= 5.80D-05 at cycle   7 NSaved=   7.
 NSaved= 7 IEnMin= 7 EnMin= -687.579430756348     IErMin= 7 ErrMin= 5.80D-05
 ErrMax= 5.80D-05  0.00D+00 EMaxC= 1.00D-01 BMatC= 9.01D-07 BMatP= 7.94D-06
 IDIUse=1 WtCom= 1.00D+00 WtEn= 0.00D+00
 Coeff-Com:  0.225D-02 0.215D-02-0.673D-02-0.341D-01-0.134D+00 0.901D-01
 Coeff-Com:  0.108D+01
 Coeff:      0.225D-02 0.215D-02-0.673D-02-0.341D-01-0.134D+00 0.901D-01
 Coeff:      0.108D+01
 Gap=     0.304 Goal=   None    Shift=    0.000
 RMSDP=1.38D-05 MaxDP=3.74D-04 DE=-1.78D-05 OVMax= 1.53D-03

 Cycle   8  Pass 0  IDiag  1:
 RMSU=  5.76D-06    CP:  8.96D-01  8.97D-01  1.08D+00  9.83D-01  1.39D+00
                    CP:  1.42D+00  1.42D+00
 E= -687.579434456465     Delta-E=       -0.000003700117 Rises=F Damp=F
 DIIS: error= 2.16D-05 at cycle   8 NSaved=   8.
 NSaved= 8 IEnMin= 8 EnMin= -687.579434456465     IErMin= 8 ErrMin= 2.16D-05
 ErrMax= 2.16D-05  0.00D+00 EMaxC= 1.00D-01 BMatC= 1.25D-07 BMatP= 9.01D-07
 IDIUse=1 WtCom= 1.00D+00 WtEn= 0.00D+00
 Coeff-Com:  0.457D-03 0.659D-03 0.245D-02 0.408D-02-0.518D-01-0.743D-01
 Coeff-Com:  0.984D-01 0.102D+01
 Coeff:      0.457D-03 0.659D-03 0.245D-02 0.408D-02-0.518D-01-0.743D-01
 Coeff:      0.984D-01 0.102D+01
 Gap=     0.304 Goal=   None    Shift=    0.000
 RMSDP=4.95D-06 MaxDP=1.60D-04 DE=-3.70D-06 OVMax= 5.69D-04

 Initial convergence to 1.0D-05 achieved.  Increase integral accuracy.
 Cycle   9  Pass 1  IDiag  1:
 E= -687.579459034145     Delta-E=       -0.000024577679 Rises=F Damp=F
 DIIS: error= 1.37D-04 at cycle   1 NSaved=   1.
 NSaved= 1 IEnMin= 1 EnMin= -687.579459034145     IErMin= 1 ErrMin= 1.37D-04
 ErrMax= 1.37D-04  0.00D+00 EMaxC= 1.00D-01 BMatC= 1.47D-06 BMatP= 1.47D-06
 IDIUse=3 WtCom= 9.99D-01 WtEn= 1.37D-03
 Coeff-Com:  0.100D+01
 Coeff-En:   0.100D+01
 Coeff:      0.100D+01
 Gap=     0.304 Goal=   None    Shift=    0.000
 RMSDP=4.95D-06 MaxDP=1.60D-04 DE=-2.46D-05 OVMax= 2.04D-04

 Cycle  10  Pass 1  IDiag  1:
 RMSU=  7.59D-05    CP:  1.00D+00
 E= -687.579460222141     Delta-E=       -0.000001187996 Rises=F Damp=F
 DIIS: error= 8.22D-06 at cycle   2 NSaved=   2.
 NSaved= 2 IEnMin= 2 EnMin= -687.579460222141     IErMin= 2 ErrMin= 8.22D-06
 ErrMax= 8.22D-06  0.00D+00 EMaxC= 1.00D-01 BMatC= 1.75D-08 BMatP= 1.47D-06
 IDIUse=1 WtCom= 1.00D+00 WtEn= 0.00D+00
 Coeff-Com: -0.236D-01 0.102D+01
 Coeff:     -0.236D-01 0.102D+01
 Gap=     0.304 Goal=   None    Shift=    0.000
 RMSDP=5.24D-06 MaxDP=1.61D-04 DE=-1.19D-06 OVMax= 1.45D-04

 Cycle  11  Pass 1  IDiag  1:
 RMSU=  1.83D-06    CP:  1.00D+00  1.06D+00
 E= -687.579460255855     Delta-E=       -0.000000033714 Rises=F Damp=F
 DIIS: error= 4.90D-06 at cycle   3 NSaved=   3.
 NSaved= 3 IEnMin= 3 EnMin= -687.579460255855     IErMin= 3 ErrMin= 4.90D-06
 ErrMax= 4.90D-06  0.00D+00 EMaxC= 1.00D-01 BMatC= 1.47D-08 BMatP= 1.75D-08
 IDIUse=1 WtCom= 1.00D+00 WtEn= 0.00D+00
 Coeff-Com: -0.216D-01 0.495D+00 0.527D+00
 Coeff:     -0.216D-01 0.495D+00 0.527D+00
 Gap=     0.304 Goal=   None    Shift=    0.000
 RMSDP=6.27D-07 MaxDP=2.69D-05 DE=-3.37D-08 OVMax= 3.56D-05

 Cycle  12  Pass 1  IDiag  1:
 RMSU=  5.60D-07    CP:  1.00D+00  1.07D+00  1.07D+00
 E= -687.579460273050     Delta-E=       -0.000000017195 Rises=F Damp=F
 DIIS: error= 2.47D-06 at cycle   4 NSaved=   4.
 NSaved= 4 IEnMin= 4 EnMin= -687.579460273050     IErMin= 4 ErrMin= 2.47D-06
 ErrMax= 2.47D-06  0.00D+00 EMaxC= 1.00D-01 BMatC= 9.48D-10 BMatP= 1.47D-08
 IDIUse=1 WtCom= 1.00D+00 WtEn= 0.00D+00
 Coeff-Com:  0.571D-02-0.202D+00-0.120D+00 0.132D+01
 Coeff:      0.571D-02-0.202D+00-0.120D+00 0.132D+01
 Gap=     0.304 Goal=   None    Shift=    0.000
 RMSDP=6.09D-07 MaxDP=2.40D-05 DE=-1.72D-08 OVMax= 7.44D-05

 Cycle  13  Pass 1  IDiag  1:
 RMSU=  3.45D-07    CP:  1.00D+00  1.07D+00  1.28D+00  1.49D+00
 E= -687.579460280279     Delta-E=       -0.000000007229 Rises=F Damp=F
 DIIS: error= 1.13D-06 at cycle   5 NSaved=   5.
 NSaved= 5 IEnMin= 5 EnMin= -687.579460280279     IErMin= 5 ErrMin= 1.13D-06
 ErrMax= 1.13D-06  0.00D+00 EMaxC= 1.00D-01 BMatC= 5.09D-10 BMatP= 9.48D-10
 IDIUse=1 WtCom= 1.00D+00 WtEn= 0.00D+00
 Coeff-Com:  0.849D-02-0.227D+00-0.223D+00 0.614D+00 0.829D+00
 Coeff:      0.849D-02-0.227D+00-0.223D+00 0.614D+00 0.829D+00
 Gap=     0.304 Goal=   None    Shift=    0.000
 RMSDP=3.17D-07 MaxDP=1.23D-05 DE=-7.23D-09 OVMax= 4.01D-05

 Cycle  14  Pass 1  IDiag  1:
 RMSU=  1.16D-07    CP:  1.00D+00  1.07D+00  1.36D+00  1.82D+00  1.48D+00
 E= -687.579460282141     Delta-E=       -0.000000001863 Rises=F Damp=F
 DIIS: error= 3.11D-07 at cycle   6 NSaved=   6.
 NSaved= 6 IEnMin= 6 EnMin= -687.579460282141     IErMin= 6 ErrMin= 3.11D-07
 ErrMax= 3.11D-07  0.00D+00 EMaxC= 1.00D-01 BMatC= 4.19D-11 BMatP= 5.09D-10
 IDIUse=1 WtCom= 1.00D+00 WtEn= 0.00D+00
 Coeff-Com:  0.878D-03-0.125D-01-0.361D-01-0.114D+00 0.202D+00 0.960D+00
 Coeff:      0.878D-03-0.125D-01-0.361D-01-0.114D+00 0.202D+00 0.960D+00
 Gap=     0.304 Goal=   None    Shift=    0.000
 RMSDP=1.20D-07 MaxDP=4.36D-06 DE=-1.86D-09 OVMax= 1.44D-05

 Cycle  15  Pass 1  IDiag  1:
 RMSU=  4.29D-08    CP:  1.00D+00  1.07D+00  1.37D+00  1.89D+00  1.75D+00
                    CP:  1.15D+00
 E= -687.579460282331     Delta-E=       -0.000000000190 Rises=F Damp=F
 DIIS: error= 1.00D-07 at cycle   7 NSaved=   7.
 NSaved= 7 IEnMin= 7 EnMin= -687.579460282331     IErMin= 7 ErrMin= 1.00D-07
 ErrMax= 1.00D-07  0.00D+00 EMaxC= 1.00D-01 BMatC= 5.15D-12 BMatP= 4.19D-11
 IDIUse=1 WtCom= 1.00D+00 WtEn= 0.00D+00
 Coeff-Com: -0.460D-03 0.164D-01 0.701D-02-0.985D-01 0.204D-03 0.350D+00
 Coeff-Com:  0.726D+00
 Coeff:     -0.460D-03 0.164D-01 0.701D-02-0.985D-01 0.204D-03 0.350D+00
 Coeff:      0.726D+00
 Gap=     0.304 Goal=   None    Shift=    0.000
 RMSDP=2.19D-08 MaxDP=5.67D-07 DE=-1.90D-10 OVMax= 2.41D-06

 Cycle  16  Pass 1  IDiag  1:
 RMSU=  1.04D-08    CP:  1.00D+00  1.07D+00  1.37D+00  1.90D+00  1.79D+00
                    CP:  1.22D+00  1.07D+00
 E= -687.579460282336     Delta-E=       -0.000000000005 Rises=F Damp=F
 DIIS: error= 3.00D-08 at cycle   8 NSaved=   8.
 NSaved= 8 IEnMin= 8 EnMin= -687.579460282336     IErMin= 8 ErrMin= 3.00D-08
 ErrMax= 3.00D-08  0.00D+00 EMaxC= 1.00D-01 BMatC= 3.77D-13 BMatP= 5.15D-12
 IDIUse=1 WtCom= 1.00D+00 WtEn= 0.00D+00
 Coeff-Com: -0.150D-03 0.390D-02 0.417D-02-0.102D-01-0.114D-01-0.187D-01
 Coeff-Com:  0.137D+00 0.896D+00
 Coeff:     -0.150D-03 0.390D-02 0.417D-02-0.102D-01-0.114D-01-0.187D-01
 Coeff:      0.137D+00 0.896D+00
 Gap=     0.304 Goal=   None    Shift=    0.000
 RMSDP=6.82D-09 MaxDP=2.78D-07 DE=-4.77D-12 OVMax= 4.22D-07

 SCF Done:  E(RLC-wHPBE) =  -687.579460282     A.U. after   16 cycles
            NFock= 16  Conv=0.68D-08     -V/T= 2.0117
 KE= 6.796041738842D+02 PE=-3.729034666434D+03 EE= 1.285172446856D+03
 Leave Link  502 at Wed May 11 03:19:50 2022, MaxMem=  6442450944 cpu:            1160.1 elap:              74.2
 (Enter /mnt/gpfs3_amd/share/apps/amd/gaussian/g16-A.03/g16/l601.exe)
 Copying SCF densities to generalized density rwf, IOpCl= 0 IROHF=0.

 **********************************************************************

            Population analysis using the SCF density.

 **********************************************************************

 Orbital symmetries:
       Occupied  (A) (A) (A) (A) (A) (A) (A) (A) (A) (A) (A) (A)
                 (A) (A) (A) (A) (A) (A) (A) (A) (A) (A) (A) (A)
                 (A) (A) (A) (A) (A) (A) (A) (A) (A) (A) (A) (A)
                 (A) (A) (A) (A) (A) (A) (A) (A) (A) (A) (A) (A)
                 (A) (A) (A) (A) (A) (A) (A) (A) (A) (A)
       Virtual   (A) (A) (A) (A) (A) (A) (A) (A) (A) (A) (A) (A)
                 (A) (A) (A) (A) (A) (A) (A) (A) (A) (A) (A) (A)
                 (A) (A) (A) (A) (A) (A) (A) (A) (A) (A) (A) (A)
                 (A) (A) (A) (A) (A) (A) (A) (A) (A) (A) (A) (A)
                 (A) (A) (A) (A) (A) (A) (A) (A) (A) (A) (A) (A)
                 (A) (A) (A) (A) (A) (A) (A) (A) (A) (A) (A) (A)
                 (A) (A) (A) (A) (A) (A) (A) (A) (A) (A) (A) (A)
                 (A) (A) (A) (A) (A) (A) (A) (A) (A) (A) (A) (A)
                 (A) (A) (A) (A) (A) (A) (A) (A) (A) (A) (A) (A)
                 (A) (A) (A) (A) (A) (A) (A) (A) (A) (A) (A) (A)
                 (A) (A) (A) (A) (A) (A) (A) (A) (A) (A) (A) (A)
                 (A) (A) (A) (A) (A) (A) (A) (A) (A) (A) (A) (A)
                 (A) (A) (A) (A) (A) (A) (A) (A) (A) (A) (A) (A)
                 (A) (A) (A) (A) (A) (A) (A) (A) (A) (A) (A) (A)
                 (A) (A) (A) (A) (A) (A) (A) (A) (A) (A) (A) (A)
                 (A) (A) (A) (A) (A) (A) (A) (A) (A) (A) (A) (A)
                 (A) (A) (A) (A) (A) (A) (A) (A) (A) (A) (A) (A)
                 (A) (A) (A) (A) (A) (A) (A) (A) (A) (A) (A) (A)
                 (A) (A) (A) (A) (A) (A) (A) (A) (A) (A) (A) (A)
                 (A) (A) (A) (A) (A) (A) (A) (A) (A) (A) (A) (A)
                 (A) (A) (A) (A) (A)
 The electronic state is 1-A.
 Alpha  occ. eigenvalues --  -14.42346 -14.42325 -10.42272 -10.42104 -10.38416
 Alpha  occ. eigenvalues --  -10.29095 -10.28955 -10.24741 -10.24449 -10.24099
 Alpha  occ. eigenvalues --  -10.23864 -10.23761 -10.23660 -10.23624 -10.23296
 Alpha  occ. eigenvalues --  -10.23109 -10.23048  -1.30445  -1.24675  -1.19387
 Alpha  occ. eigenvalues --   -1.13097  -1.11317  -1.02641  -1.01094  -1.00188
 Alpha  occ. eigenvalues --   -0.99556  -0.92675  -0.90992  -0.88445  -0.87466
 Alpha  occ. eigenvalues --   -0.86119  -0.85067  -0.82999  -0.81024  -0.79854
 Alpha  occ. eigenvalues --   -0.75236  -0.74465  -0.73809  -0.72621  -0.70455
 Alpha  occ. eigenvalues --   -0.69819  -0.68983  -0.67815  -0.67371  -0.65790
 Alpha  occ. eigenvalues --   -0.65486  -0.63493  -0.63033  -0.59813  -0.58963
 Alpha  occ. eigenvalues --   -0.58353  -0.57367  -0.56108  -0.54953  -0.49316
 Alpha  occ. eigenvalues --   -0.47918  -0.47386  -0.44628
 Alpha virt. eigenvalues --   -0.14215  -0.11001  -0.05526  -0.04670  -0.03085
 Alpha virt. eigenvalues --   -0.01812  -0.01117   0.02598   0.04482   0.05464
 Alpha virt. eigenvalues --    0.06142   0.06412   0.08573   0.09639   0.10028
 Alpha virt. eigenvalues --    0.10928   0.11582   0.13352   0.13746   0.13997
 Alpha virt. eigenvalues --    0.14702   0.15757   0.16018   0.16125   0.19862
 Alpha virt. eigenvalues --    0.21111   0.23985   0.26090   0.26476   0.28073
 Alpha virt. eigenvalues --    0.28270   0.28601   0.28997   0.31386   0.32353
 Alpha virt. eigenvalues --    0.33932   0.35070   0.35482   0.35899   0.37460
 Alpha virt. eigenvalues --    0.38564   0.39047   0.39878   0.40878   0.41052
 Alpha virt. eigenvalues --    0.42255   0.43330   0.44856   0.44879   0.47002
 Alpha virt. eigenvalues --    0.47642   0.47772   0.48655   0.49322   0.50160
 Alpha virt. eigenvalues --    0.50528   0.50873   0.51071   0.51882   0.53456
 Alpha virt. eigenvalues --    0.54841   0.56589   0.56711   0.57124   0.57890
 Alpha virt. eigenvalues --    0.58884   0.59800   0.60726   0.61223   0.62977
 Alpha virt. eigenvalues --    0.63503   0.64473   0.65369   0.65908   0.66225
 Alpha virt. eigenvalues --    0.66412   0.67167   0.67770   0.68694   0.69263
 Alpha virt. eigenvalues --    0.70656   0.71141   0.71195   0.73036   0.74047
 Alpha virt. eigenvalues --    0.74427   0.74807   0.75205   0.76940   0.77470
 Alpha virt. eigenvalues --    0.77694   0.78267   0.78841   0.79744   0.80879
 Alpha virt. eigenvalues --    0.83253   0.83965   0.84128   0.86236   0.87517
 Alpha virt. eigenvalues --    0.91470   0.92255   0.93474   0.94180   0.96206
 Alpha virt. eigenvalues --    0.97436   1.01232   1.04073   1.07460   1.08245
 Alpha virt. eigenvalues --    1.09195   1.11002   1.12473   1.15502   1.19711
 Alpha virt. eigenvalues --    1.20164   1.20631   1.21193   1.24276   1.25060
 Alpha virt. eigenvalues --    1.25868   1.26479   1.27602   1.28216   1.28776
 Alpha virt. eigenvalues --    1.29425   1.30040   1.31352   1.33449   1.34320
 Alpha virt. eigenvalues --    1.35987   1.41648   1.42727   1.47396   1.51843
 Alpha virt. eigenvalues --    1.52955   1.54231   1.58145   1.61039   1.63567
 Alpha virt. eigenvalues --    1.65328   1.66558   1.67265   1.67448   1.68709
 Alpha virt. eigenvalues --    1.70641   1.72712   1.73196   1.74776   1.75984
 Alpha virt. eigenvalues --    1.76167   1.76837   1.77678   1.77986   1.78272
 Alpha virt. eigenvalues --    1.78460   1.79006   1.79714   1.80253   1.80874
 Alpha virt. eigenvalues --    1.81535   1.83528   1.85133   1.86763   1.87374
 Alpha virt. eigenvalues --    1.88063   1.92881   1.95033   1.95902   1.96442
 Alpha virt. eigenvalues --    1.96936   1.99360   1.99559   1.99997   2.00029
 Alpha virt. eigenvalues --    2.00994   2.02294   2.02510   2.05208   2.05665
 Alpha virt. eigenvalues --    2.09930   2.10378   2.11885   2.13792   2.14159
 Alpha virt. eigenvalues --    2.15386   2.15489   2.16316   2.17375   2.19339
 Alpha virt. eigenvalues --    2.19544   2.20768   2.21031   2.28269   2.28874
 Alpha virt. eigenvalues --    2.29558   2.30628   2.31201   2.32539   2.33782
 Alpha virt. eigenvalues --    2.34779   2.35325   2.35688   2.36055   2.40765
 Alpha virt. eigenvalues --    2.42676   2.43936   2.46885   2.49446   2.54158
 Alpha virt. eigenvalues --    2.56084   2.59273   2.61386   2.62162   2.63231
 Alpha virt. eigenvalues --    2.64988   2.65988   2.66149   2.66626   2.73991
 Alpha virt. eigenvalues --    2.74627   2.75510   2.76197   2.77565   2.81132
 Alpha virt. eigenvalues --    2.83440   2.86652   2.90125   2.90919   2.91825
 Alpha virt. eigenvalues --    2.93126   2.98810   3.04701   3.08783   3.12841
 Alpha virt. eigenvalues --    3.13530   3.14942   3.20316   3.23043   3.26874
 Alpha virt. eigenvalues --    3.30271   3.32662   3.43368   3.68245   3.70027
          Condensed to atoms (all electrons):
               1          2          3          4          5          6
     1  N    6.048389   0.479200  -0.035288  -0.041902  -0.000369   0.000294
     2  C    0.479200   5.075456   0.236690   0.110132  -0.033656  -0.008637
     3  C   -0.035288   0.236690   5.211049   0.182844  -0.036424   0.005473
     4  C   -0.041902   0.110132   0.182844   5.171213   0.437064  -0.055086
     5  N   -0.000369  -0.033656  -0.036424   0.437064   6.733923   0.254846
     6  C    0.000294  -0.008637   0.005473  -0.055086   0.254846   5.213379
     7  C    0.000111   0.000311  -0.003658  -0.003291  -0.078669   0.270246
     8  C   -0.000001   0.000268  -0.000142   0.000108   0.008066   0.099442
     9  C    0.000000  -0.000011  -0.000004   0.000051  -0.000515  -0.151075
    10  C   -0.000001  -0.000034   0.000024  -0.000013   0.008101   0.114460
    11  C   -0.000008   0.000909  -0.000560   0.002720  -0.072816   0.292800
    12  C   -0.000061   0.001617  -0.005799  -0.047020   0.245690  -0.041786
    13  C    0.000000  -0.000708   0.000765   0.001202  -0.069568   0.001363
    14  C   -0.000000   0.000033  -0.000028   0.000051   0.008894  -0.001655
    15  C    0.000000  -0.000000  -0.000010   0.000048  -0.000582   0.000140
    16  C    0.000000  -0.000067   0.000056   0.000135   0.007597  -0.000234
    17  C    0.000004  -0.002186   0.000086  -0.000815  -0.074145   0.004294
    18  H    0.381390  -0.017079   0.005382  -0.008837   0.000191  -0.000010
    19  H    0.366919  -0.006932  -0.007502   0.008513  -0.000020  -0.000013
    20  H   -0.000241  -0.031475   0.433507  -0.025536  -0.000117  -0.000095
    21  H    0.000033   0.000131  -0.004494   0.007786  -0.014040  -0.078563
    22  H   -0.000000  -0.000002   0.000009  -0.000048  -0.000131   0.013494
    23  H    0.000000  -0.000000   0.000000  -0.000000   0.000008  -0.001799
    24  H    0.000000   0.000001  -0.000000   0.000003  -0.000078   0.013572
    25  H    0.000000  -0.000040   0.000007  -0.000418  -0.013852  -0.064043
    26  H   -0.000000  -0.000016  -0.000013  -0.000558  -0.014597   0.008226
    27  H   -0.000000  -0.000000   0.000000   0.000001  -0.000121  -0.000019
    28  H    0.000000   0.000000  -0.000000  -0.000000   0.000008   0.000001
    29  H   -0.000000   0.000003   0.000002  -0.000035  -0.000110   0.000005
    30  H    0.000030  -0.003386  -0.000379   0.006608  -0.012899  -0.000405
               7          8          9         10         11         12
     1  N    0.000111  -0.000001   0.000000  -0.000001  -0.000008  -0.000061
     2  C    0.000311   0.000268  -0.000011  -0.000034   0.000909   0.001617
     3  C   -0.003658  -0.000142  -0.000004   0.000024  -0.000560  -0.005799
     4  C   -0.003291   0.000108   0.000051  -0.000013   0.002720  -0.047020
     5  N   -0.078669   0.008066  -0.000515   0.008101  -0.072816   0.245690
     6  C    0.270246   0.099442  -0.151075   0.114460   0.292800  -0.041786
     7  C    5.153473   0.318610   0.069611  -0.141744   0.055077   0.003294
     8  C    0.318610   4.963773   0.336994   0.084804  -0.141164  -0.000281
     9  C    0.069611   0.336994   5.002520   0.301069   0.077697   0.000131
    10  C   -0.141744   0.084804   0.301069   5.014914   0.286202  -0.001303
    11  C    0.055077  -0.141164   0.077697   0.286202   5.100183   0.002299
    12  C    0.003294  -0.000281   0.000131  -0.001303   0.002299   5.196095
    13  C   -0.000202   0.000109  -0.000045  -0.000382  -0.007380   0.295156
    14  C    0.000002   0.000005   0.000000   0.000011  -0.000394   0.113872
    15  C   -0.000004   0.000000  -0.000000  -0.000000  -0.000051  -0.152155
    16  C    0.000009  -0.000000   0.000000   0.000004   0.000099   0.098264
    17  C   -0.000820   0.000007  -0.000003  -0.000012   0.000013   0.289307
    18  H   -0.000014  -0.000001   0.000000   0.000000  -0.000002  -0.000018
    19  H    0.000030   0.000002  -0.000000  -0.000000   0.000002   0.000004
    20  H    0.000013   0.000001   0.000000  -0.000000   0.000002   0.000257
    21  H    0.450408  -0.051931   0.012749  -0.002303   0.015317  -0.000398
    22  H   -0.060749   0.444963  -0.057114   0.013014  -0.001518   0.000007
    23  H    0.013124  -0.059465   0.453720  -0.063837   0.012477   0.000000
    24  H   -0.001733   0.012952  -0.063276   0.454189  -0.061258  -0.000024
    25  H    0.015778  -0.002361   0.012906  -0.062357   0.458064   0.007158
    26  H   -0.001833   0.000155   0.000054  -0.000553  -0.001277  -0.061726
    27  H    0.000002  -0.000000   0.000000  -0.000001   0.000025   0.014094
    28  H    0.000000   0.000000  -0.000000   0.000000  -0.000000  -0.001799
    29  H   -0.000000   0.000000   0.000000  -0.000000  -0.000001   0.014278
    30  H    0.000016   0.000000   0.000000   0.000001  -0.000036  -0.077957
              13         14         15         16         17         18
     1  N    0.000000  -0.000000   0.000000   0.000000   0.000004   0.381390
     2  C   -0.000708   0.000033  -0.000000  -0.000067  -0.002186  -0.017079
     3  C    0.000765  -0.000028  -0.000010   0.000056   0.000086   0.005382
     4  C    0.001202   0.000051   0.000048   0.000135  -0.000815  -0.008837
     5  N   -0.069568   0.008894  -0.000582   0.007597  -0.074145   0.000191
     6  C    0.001363  -0.001655   0.000140  -0.000234   0.004294  -0.000010
     7  C   -0.000202   0.000002  -0.000004   0.000009  -0.000820  -0.000014
     8  C    0.000109   0.000005   0.000000  -0.000000   0.000007  -0.000001
     9  C   -0.000045   0.000000  -0.000000   0.000000  -0.000003   0.000000
    10  C   -0.000382   0.000011  -0.000000   0.000004  -0.000012   0.000000
    11  C   -0.007380  -0.000394  -0.000051   0.000099   0.000013  -0.000002
    12  C    0.295156   0.113872  -0.152155   0.098264   0.289307  -0.000018
    13  C    5.085715   0.293037   0.080920  -0.139703   0.051463   0.000000
    14  C    0.293037   5.027869   0.285962   0.094038  -0.152365  -0.000000
    15  C    0.080920   0.285962   5.016732   0.313025   0.073192   0.000000
    16  C   -0.139703   0.094038   0.313025   4.983812   0.322541   0.000001
    17  C    0.051463  -0.152365   0.073192   0.322541   5.136371   0.000017
    18  H    0.000000  -0.000000   0.000000   0.000001   0.000017   0.447029
    19  H   -0.000000   0.000000  -0.000000  -0.000000  -0.000001  -0.019149
    20  H   -0.000013   0.000001  -0.000000   0.000001  -0.000016  -0.000031
    21  H    0.000005  -0.000000   0.000000   0.000000   0.000014  -0.000000
    22  H   -0.000002  -0.000000   0.000000   0.000000  -0.000000   0.000000
    23  H   -0.000000   0.000000  -0.000000   0.000000   0.000000  -0.000000
    24  H    0.000021  -0.000001   0.000000  -0.000000   0.000002  -0.000000
    25  H   -0.001081  -0.000539   0.000044   0.000087  -0.001153   0.000001
    26  H    0.455814  -0.062170   0.012223  -0.002452   0.016348  -0.000000
    27  H   -0.058817   0.452063  -0.065131   0.012881  -0.001491   0.000000
    28  H    0.012148  -0.064841   0.460030  -0.062906   0.013231  -0.000000
    29  H   -0.001591   0.012174  -0.060468   0.444404  -0.057246  -0.000000
    30  H    0.016883  -0.002453   0.013203  -0.053761   0.445302   0.000061
              19         20         21         22         23         24
     1  N    0.366919  -0.000241   0.000033  -0.000000   0.000000   0.000000
     2  C   -0.006932  -0.031475   0.000131  -0.000002  -0.000000   0.000001
     3  C   -0.007502   0.433507  -0.004494   0.000009   0.000000  -0.000000
     4  C    0.008513  -0.025536   0.007786  -0.000048  -0.000000   0.000003
     5  N   -0.000020  -0.000117  -0.014040  -0.000131   0.000008  -0.000078
     6  C   -0.000013  -0.000095  -0.078563   0.013494  -0.001799   0.013572
     7  C    0.000030   0.000013   0.450408  -0.060749   0.013124  -0.001733
     8  C    0.000002   0.000001  -0.051931   0.444963  -0.059465   0.012952
     9  C   -0.000000   0.000000   0.012749  -0.057114   0.453720  -0.063276
    10  C   -0.000000  -0.000000  -0.002303   0.013014  -0.063837   0.454189
    11  C    0.000002   0.000002   0.015317  -0.001518   0.012477  -0.061258
    12  C    0.000004   0.000257  -0.000398   0.000007   0.000000  -0.000024
    13  C   -0.000000  -0.000013   0.000005  -0.000002  -0.000000   0.000021
    14  C    0.000000   0.000001  -0.000000  -0.000000   0.000000  -0.000001
    15  C   -0.000000  -0.000000   0.000000   0.000000  -0.000000   0.000000
    16  C   -0.000000   0.000001   0.000000   0.000000   0.000000  -0.000000
    17  C   -0.000001  -0.000016   0.000014  -0.000000   0.000000   0.000002
    18  H   -0.019149  -0.000031  -0.000000   0.000000  -0.000000  -0.000000
    19  H    0.448699   0.000191   0.000011  -0.000000  -0.000000   0.000000
    20  H    0.000191   0.492525  -0.000080  -0.000000   0.000000  -0.000000
    21  H    0.000011  -0.000080   0.666172  -0.010874  -0.000152   0.000016
    22  H   -0.000000  -0.000000  -0.010874   0.623054  -0.011759  -0.000238
    23  H   -0.000000   0.000000  -0.000152  -0.011759   0.613845  -0.010374
    24  H    0.000000  -0.000000   0.000016  -0.000238  -0.010374   0.615181
    25  H   -0.000000  -0.000000  -0.000173   0.000013  -0.000138  -0.010234
    26  H    0.000000   0.000001  -0.000004  -0.000001  -0.000000  -0.000002
    27  H   -0.000000  -0.000000  -0.000000   0.000000   0.000000  -0.000000
    28  H    0.000000   0.000000  -0.000000   0.000000  -0.000000   0.000000
    29  H    0.000000   0.000000  -0.000000  -0.000000   0.000000   0.000000
    30  H   -0.000004  -0.000020   0.000001  -0.000000  -0.000000  -0.000000
              25         26         27         28         29         30
     1  N    0.000000  -0.000000  -0.000000   0.000000  -0.000000   0.000030
     2  C   -0.000040  -0.000016  -0.000000   0.000000   0.000003  -0.003386
     3  C    0.000007  -0.000013   0.000000  -0.000000   0.000002  -0.000379
     4  C   -0.000418  -0.000558   0.000001  -0.000000  -0.000035   0.006608
     5  N   -0.013852  -0.014597  -0.000121   0.000008  -0.000110  -0.012899
     6  C   -0.064043   0.008226  -0.000019   0.000001   0.000005  -0.000405
     7  C    0.015778  -0.001833   0.000002   0.000000  -0.000000   0.000016
     8  C   -0.002361   0.000155  -0.000000   0.000000   0.000000   0.000000
     9  C    0.012906   0.000054   0.000000  -0.000000   0.000000   0.000000
    10  C   -0.062357  -0.000553  -0.000001   0.000000  -0.000000   0.000001
    11  C    0.458064  -0.001277   0.000025  -0.000000  -0.000001  -0.000036
    12  C    0.007158  -0.061726   0.014094  -0.001799   0.014278  -0.077957
    13  C   -0.001081   0.455814  -0.058817   0.012148  -0.001591   0.016883
    14  C   -0.000539  -0.062170   0.452063  -0.064841   0.012174  -0.002453
    15  C    0.000044   0.012223  -0.065131   0.460030  -0.060468   0.013203
    16  C    0.000087  -0.002452   0.012881  -0.062906   0.444404  -0.053761
    17  C   -0.001153   0.016348  -0.001491   0.013231  -0.057246   0.445302
    18  H    0.000001  -0.000000   0.000000  -0.000000  -0.000000   0.000061
    19  H   -0.000000   0.000000  -0.000000   0.000000   0.000000  -0.000004
    20  H   -0.000000   0.000001  -0.000000   0.000000   0.000000  -0.000020
    21  H   -0.000173  -0.000004  -0.000000  -0.000000  -0.000000   0.000001
    22  H    0.000013  -0.000001   0.000000   0.000000  -0.000000  -0.000000
    23  H   -0.000138  -0.000000   0.000000  -0.000000   0.000000  -0.000000
    24  H   -0.010234  -0.000002  -0.000000   0.000000   0.000000  -0.000000
    25  H    0.623775  -0.000098  -0.000001   0.000000  -0.000002   0.000011
    26  H   -0.000098   0.622374  -0.010696  -0.000093   0.000014  -0.000238
    27  H   -0.000001  -0.010696   0.619891  -0.010204  -0.000227   0.000019
    28  H    0.000000  -0.000093  -0.010204   0.612830  -0.010248  -0.000162
    29  H   -0.000002   0.000014  -0.000227  -0.010248   0.618603  -0.011883
    30  H    0.000011  -0.000238   0.000019  -0.000162  -0.011883   0.676567
 Mulliken charges:
               1
     1  N   -0.198501
     2  C    0.199479
     3  C    0.018407
     4  C    0.255081
     5  N   -0.281681
     6  C    0.111386
     7  C   -0.057399
     8  C   -0.014913
     9  C    0.004540
    10  C   -0.004254
    11  C   -0.017422
    12  C    0.108802
    13  C   -0.015110
    14  C   -0.003566
    15  C    0.022881
    16  C   -0.017832
    17  C   -0.061940
    18  H    0.211069
    19  H    0.209252
    20  H    0.131125
    21  H    0.010372
    22  H    0.047881
    23  H    0.054349
    24  H    0.051282
    25  H    0.038649
    26  H    0.041120
    27  H    0.047731
    28  H    0.052005
    29  H    0.052329
    30  H    0.004880
 Sum of Mulliken charges =   1.00000
 Mulliken charges with hydrogens summed into heavy atoms:
               1
     1  N    0.221820
     2  C    0.199479
     3  C    0.149532
     4  C    0.255081
     5  N   -0.281681
     6  C    0.111386
     7  C   -0.047028
     8  C    0.032969
     9  C    0.058889
    10  C    0.047028
    11  C    0.021226
    12  C    0.108802
    13  C    0.026010
    14  C    0.044165
    15  C    0.074886
    16  C    0.034497
    17  C   -0.057060
 Electronic spatial extent (au):  <R**2>=           4155.4883
 Charge=              1.0000 electrons
 Dipole moment (field-independent basis, Debye):
    X=             -2.6480    Y=              8.5510    Z=             -0.3961  Tot=              8.9604
 Quadrupole moment (field-independent basis, Debye-Ang):
   XX=            -65.8338   YY=            -46.6771   ZZ=            -84.6619
   XY=            -10.1879   XZ=              0.7961   YZ=             -0.6558
 Traceless Quadrupole moment (field-independent basis, Debye-Ang):
   XX=             -0.1095   YY=             19.0472   ZZ=            -18.9377
   XY=            -10.1879   XZ=              0.7961   YZ=             -0.6558
 Octapole moment (field-independent basis, Debye-Ang**2):
  XXX=             12.5399  YYY=            133.9057  ZZZ=              2.5984  XYY=            -71.2700
  XXY=             -6.2693  XXZ=              3.0511  XZZ=            -10.8989  YZZ=             32.8951
  YYZ=             11.0137  XYZ=              2.5961
 Hexadecapole moment (field-independent basis, Debye-Ang**3):
 XXXX=          -2546.0585 YYYY=          -1510.5054 ZZZZ=           -390.2051 XXXY=            -70.2594
 XXXZ=             74.7499 YYYX=           -215.0104 YYYZ=             15.3947 ZZZX=            -11.9266
 ZZZY=              3.7253 XXYY=           -601.6877 XXZZ=           -569.0476 YYZZ=           -277.9378
 XXYZ=             52.0481 YYXZ=            -86.8510 ZZXY=            -20.1885
 N-N= 1.076678585411D+03 E-N=-3.729034667749D+03  KE= 6.796041738842D+02
 No NMR shielding tensors so no spin-rotation constants.
 Leave Link  601 at Wed May 11 03:19:51 2022, MaxMem=  6442450944 cpu:               6.9 elap:               0.5
 (Enter /mnt/gpfs3_amd/share/apps/amd/gaussian/g16-A.03/g16/l701.exe)
 ... and contract with generalized density number  0.
 Compute integral first derivatives.
   1 Symmetry operations used in ECPInt.
 ECPInt:  NShTT=   10011 NPrTT=   36575 LenC2=    9378 LenP2D=   24388.
 LDataN:  DoStor=T MaxTD1= 5 Len=  102
 Leave Link  701 at Wed May 11 03:19:51 2022, MaxMem=  6442450944 cpu:               5.5 elap:               0.4
 (Enter /mnt/gpfs3_amd/share/apps/amd/gaussian/g16-A.03/g16/l702.exe)
 L702 exits ... SP integral derivatives will be done elsewhere.
 Leave Link  702 at Wed May 11 03:19:51 2022, MaxMem=  6442450944 cpu:               0.3 elap:               0.0
 (Enter /mnt/gpfs3_amd/share/apps/amd/gaussian/g16-A.03/g16/l703.exe)
 Integral derivatives from FoFJK, PRISM(SPDF).
 Compute integral first derivatives, UseDBF=F ICtDFT=           0.
 Calling FoFJK, ICntrl=      2127 FMM=F ISym2X=0 I1Cent= 0 IOpClX= 0 NMat=1 NMatS=1 NMatT=0.
 FoFJK:  IHMeth= 1 ICntrl=    2127 DoSepK=T KAlg= 0 I1Cent=           0 FoldK=F
 IRaf=         1 NMat=       1 IRICut=       1 DoRegI=T DoRafI=F ISym2E= 0 IDoP0=0 IntGTp=1.
 FoFCou: FMM=F IPFlag=           0 FMFlag=      100000 FMFlg1=         800
         NFxFlg=           0 DoJE=F BraDBF=F KetDBF=F FulRan=T
         wScrn=  0.000000 ICntrl=      2527 IOpCl=  0 I1Cent=           0 NGrid=           0
         NMat0=    1 NMatS0=      1 NMatT0=    0 NMatD0=    1 NMtDS0=    0 NMtDT0=    0
 Symmetry not used in FoFCou.
 Leave Link  703 at Wed May 11 03:20:10 2022, MaxMem=  6442450944 cpu:             290.9 elap:              18.5
 (Enter /mnt/gpfs3_amd/share/apps/amd/gaussian/g16-A.03/g16/l716.exe)
 Dipole        =-1.04181197D+00 3.36424084D+00-1.55853728D-01
 ***** Axes restored to original set *****
 -------------------------------------------------------------------
 Center     Atomic                   Forces (Hartrees/Bohr)
 Number     Number              X              Y              Z
 -------------------------------------------------------------------
      1        7           0.011923596   -0.045935895   -0.029482101
      2        6          -0.008497064    0.090400060    0.021698699
      3        6          -0.037475309   -0.012172466    0.044411218
      4        6           0.010771380   -0.091290570   -0.018489906
      5        7           0.022494226    0.061789906    0.001529574
      6        6          -0.010595290    0.011234415   -0.002374491
      7        6          -0.018749547    0.001758043   -0.006711192
      8        6           0.007635529    0.008281955   -0.006305712
      9        6          -0.003520293    0.004360022   -0.007904246
     10        6           0.016246595   -0.001348720    0.005184656
     11        6          -0.010526967   -0.011157834    0.013173780
     12        6           0.007970713   -0.003328420   -0.011291771
     13        6          -0.000456747   -0.004370126   -0.002727531
     14        6          -0.011868825   -0.002713646   -0.009005331
     15        6           0.001090600    0.007612063    0.004512942
     16        6           0.004212962    0.017416385    0.009544125
     17        6           0.006038865    0.014790963    0.010036227
     18        1          -0.011636683   -0.003921443   -0.016204149
     19        1           0.015070551   -0.009816109    0.008286566
     20        1           0.003611286    0.000165772   -0.004056508
     21        1           0.002818225    0.002658790   -0.006397808
     22        1           0.001495446    0.003522768   -0.005015079
     23        1          -0.001648009   -0.001882701    0.001926416
     24        1           0.000319225   -0.005083103    0.007855265
     25        1           0.003287756   -0.004725991    0.008401914
     26        1          -0.003676268   -0.006802864   -0.006685278
     27        1          -0.001989727   -0.010136333   -0.006546102
     28        1           0.002067498   -0.007315362   -0.001492052
     29        1          -0.000702572   -0.002193704   -0.001365444
     30        1           0.004288846    0.000204142    0.005493317
 -------------------------------------------------------------------
 Cartesian Forces:  Max     0.091290570 RMS     0.019117595
 Leave Link  716 at Wed May 11 03:20:10 2022, MaxMem=  6442450944 cpu:               0.2 elap:               0.0
 (Enter /mnt/gpfs3_amd/share/apps/amd/gaussian/g16-A.03/g16/l103.exe)

 GradGradGradGradGradGradGradGradGradGradGradGradGradGradGradGradGradGrad
 Berny optimization.
 FormGI is forming the generalized inverse of G from B-inverse, IUseBI=4.
 Internal  Forces:  Max     0.074195908 RMS     0.011525253
 Search for a local minimum.
 Step number   1 out of a maximum of  158
 All quantities printed in internal units (Hartrees-Bohrs-Radians)
 RMS Force = .11525D-01 SwitMx=.10000D-02 MixMth= 1
 Mixed Optimization -- RFO/linear search
 Second derivative matrix not updated -- first step.
 ITU=  0
     Eigenvalues ---    0.01296   0.01361   0.01382   0.01462   0.01494
     Eigenvalues ---    0.01556   0.01556   0.02016   0.02041   0.02074
     Eigenvalues ---    0.02078   0.02202   0.02212   0.02246   0.02255
     Eigenvalues ---    0.02272   0.02279   0.02298   0.02302   0.02313
     Eigenvalues ---    0.02319   0.02334   0.02346   0.02391   0.02394
     Eigenvalues ---    0.02408   0.02412   0.16000   0.16000   0.16000
     Eigenvalues ---    0.16000   0.16000   0.16000   0.16000   0.16000
     Eigenvalues ---    0.16000   0.16000   0.16000   0.16000   0.16000
     Eigenvalues ---    0.22000   0.22000   0.22000   0.22000   0.23479
     Eigenvalues ---    0.23484   0.25000   0.25000   0.25000   0.25000
     Eigenvalues ---    0.25000   0.25000   0.34260   0.34758   0.34930
     Eigenvalues ---    0.35228   0.35607   0.35623   0.35737   0.35795
     Eigenvalues ---    0.35883   0.36057   0.36438   0.41006   0.41131
     Eigenvalues ---    0.41711   0.42157   0.42374   0.42389   0.43023
     Eigenvalues ---    0.43233   0.43781   0.43962   0.44929   0.45016
     Eigenvalues ---    0.45996   0.47349   0.48493   0.48815   0.49563
     Eigenvalues ---    0.49643   0.49893   0.50031   0.51342
 RFO step:  Lambda=-5.28832630D-02 EMin= 1.29646930D-02
 Linear search not attempted -- first point.
 Maximum step size (   0.300) exceeded in Quadratic search.
    -- Step size scaled by   0.947
 Iteration  1 RMS(Cart)=  0.11257500 RMS(Int)=  0.00744278
 Iteration  2 RMS(Cart)=  0.00882424 RMS(Int)=  0.00015843
 Iteration  3 RMS(Cart)=  0.00007354 RMS(Int)=  0.00014741
 Iteration  4 RMS(Cart)=  0.00000008 RMS(Int)=  0.00014741
 ITry= 1 IFail=0 DXMaxC= 6.78D-01 DCOld= 1.00D+10 DXMaxT= 3.00D-01 DXLimC= 3.00D+00 Rises=F
 Variable       Old X    -DE/DX   Delta X   Delta X   Delta X     New X
                                 (Linear)    (Quad)   (Total)
    R1        2.66500  -0.07197   0.00000  -0.13842  -0.13842   2.52658
    R2        1.95131  -0.01696   0.00000  -0.03369  -0.03369   1.91761
    R3        1.95149  -0.01698   0.00000  -0.03374  -0.03374   1.91775
[...]
 Alpha virt. eigenvalues --    0.55062   0.55563   0.56782   0.57141   0.58253
 Alpha virt. eigenvalues --    0.59384   0.60834   0.61576   0.62157   0.62587
 Alpha virt. eigenvalues --    0.63251   0.63991   0.64382   0.65562   0.66214
 Alpha virt. eigenvalues --    0.66727   0.66988   0.68084   0.69079   0.69381
 Alpha virt. eigenvalues --    0.70048   0.70586   0.71755   0.72546   0.73672
 Alpha virt. eigenvalues --    0.73853   0.74209   0.75107   0.75823   0.76125
 Alpha virt. eigenvalues --    0.77027   0.77962   0.78643   0.80080   0.81534
 Alpha virt. eigenvalues --    0.81834   0.83027   0.84799   0.85858   0.88381
 Alpha virt. eigenvalues --    0.89859   0.92071   0.92842   0.94409   0.98577
 Alpha virt. eigenvalues --    1.01397   1.04554   1.06334   1.06715   1.07266
 Alpha virt. eigenvalues --    1.09245   1.09994   1.15427   1.16980   1.18119
 Alpha virt. eigenvalues --    1.18531   1.20979   1.22573   1.22831   1.23225
 Alpha virt. eigenvalues --    1.24041   1.25324   1.26006   1.26652   1.27894
 Alpha virt. eigenvalues --    1.29773   1.29868   1.30297   1.32007   1.33202
 Alpha virt. eigenvalues --    1.35111   1.35935   1.46741   1.49465   1.51128
 Alpha virt. eigenvalues --    1.54270   1.58558   1.60177   1.61166   1.65223
 Alpha virt. eigenvalues --    1.66400   1.66800   1.66994   1.67639   1.68972
 Alpha virt. eigenvalues --    1.70763   1.71673   1.72525   1.74575   1.74856
 Alpha virt. eigenvalues --    1.75127   1.75627   1.75960   1.76351   1.77374
 Alpha virt. eigenvalues --    1.77538   1.78515   1.78691   1.80623   1.81445
 Alpha virt. eigenvalues --    1.82541   1.83077   1.84473   1.85487   1.86072
 Alpha virt. eigenvalues --    1.88241   1.92640   1.94599   1.95083   1.97051
 Alpha virt. eigenvalues --    1.97472   1.98295   1.98524   1.98839   1.99588
 Alpha virt. eigenvalues --    1.99915   2.00956   2.02743   2.04285   2.04884
 Alpha virt. eigenvalues --    2.06970   2.09415   2.10216   2.13745   2.14382
 Alpha virt. eigenvalues --    2.15181   2.15577   2.16426   2.16874   2.18715
 Alpha virt. eigenvalues --    2.20869   2.22189   2.26609   2.28250   2.29213
 Alpha virt. eigenvalues --    2.29914   2.30135   2.30478   2.32013   2.32360
 Alpha virt. eigenvalues --    2.32785   2.34404   2.35241   2.36426   2.41063
 Alpha virt. eigenvalues --    2.42930   2.46246   2.52766   2.54192   2.55390
 Alpha virt. eigenvalues --    2.58236   2.60139   2.61267   2.61757   2.62851
 Alpha virt. eigenvalues --    2.64215   2.65083   2.70386   2.72160   2.73006
 Alpha virt. eigenvalues --    2.73232   2.73727   2.77454   2.79230   2.80421
 Alpha virt. eigenvalues --    2.85573   2.86507   2.87067   2.88056   2.88409
 Alpha virt. eigenvalues --    2.90547   2.97093   3.02623   3.09708   3.11064
 Alpha virt. eigenvalues --    3.12519   3.13558   3.19159   3.23241   3.28114
 Alpha virt. eigenvalues --    3.37124   3.43322   3.55964   3.64903   3.68112
          Condensed to atoms (all electrons):
               1          2          3          4          5          6
     1  N    5.854454   0.504667  -0.044277  -0.043245   0.000440  -0.000808
     2  C    0.504667   4.827353   0.369720   0.291999  -0.038128  -0.012929
     3  C   -0.044277   0.369720   5.217795   0.211549  -0.049849   0.004874
     4  C   -0.043245   0.291999   0.211549   4.995724   0.479136  -0.058267
     5  N    0.000440  -0.038128  -0.049849   0.479136   6.588429   0.236507
     6  C   -0.000808  -0.012929   0.004874  -0.058267   0.236507   5.271463
     7  C   -0.001114  -0.003546   0.001549  -0.007910  -0.061602   0.269896
     8  C    0.000017  -0.000195  -0.000028   0.000025   0.007146   0.084758
     9  C    0.000001  -0.000010   0.000002   0.000096  -0.000129  -0.143640
    10  C    0.000007   0.000016  -0.000004   0.000021   0.007458   0.100273
    11  C   -0.000066   0.000719  -0.000276   0.002365  -0.063668   0.317212
    12  C   -0.000100   0.003360  -0.004053  -0.055872   0.221893  -0.038085
    13  C   -0.000000  -0.000542   0.000582   0.001447  -0.061533   0.001698
    14  C    0.000000   0.000007  -0.000006   0.000067   0.007227  -0.001354
    15  C    0.000000   0.000002  -0.000008   0.000131  -0.000108   0.000085
    16  C    0.000000   0.000017  -0.000150   0.000012   0.006640  -0.000242
    17  C    0.000000   0.000935  -0.001102  -0.006774  -0.061767   0.003147
    18  H    0.385858  -0.013274   0.007691  -0.020250   0.000346   0.000347
    19  H    0.366929  -0.006512  -0.011057   0.011770  -0.000049  -0.000015
    20  H   -0.000985  -0.050145   0.467465  -0.045569  -0.000992  -0.000093
    21  H    0.000969  -0.000304  -0.000356   0.001971  -0.008824  -0.076364
    22  H   -0.000009   0.000011  -0.000001  -0.000019  -0.000134   0.013475
    23  H    0.000000  -0.000000  -0.000000  -0.000000   0.000007  -0.001754
    24  H   -0.000000   0.000001  -0.000000  -0.000002  -0.000117   0.012679
    25  H   -0.000000  -0.000084  -0.000037  -0.000595  -0.011663  -0.060295
    26  H   -0.000000  -0.000059  -0.000061  -0.000786  -0.011911   0.007861
    27  H   -0.000000  -0.000000   0.000000  -0.000004  -0.000119  -0.000015
    28  H    0.000000   0.000000  -0.000000  -0.000000   0.000008   0.000000
    29  H   -0.000000  -0.000002   0.000014  -0.000032  -0.000127   0.000007
    30  H   -0.000002  -0.000271  -0.000003   0.003353  -0.011505  -0.000420
               7          8          9         10         11         12
     1  N   -0.001114   0.000017   0.000001   0.000007  -0.000066  -0.000100
     2  C   -0.003546  -0.000195  -0.000010   0.000016   0.000719   0.003360
     3  C    0.001549  -0.000028   0.000002  -0.000004  -0.000276  -0.004053
     4  C   -0.007910   0.000025   0.000096   0.000021   0.002365  -0.055872
     5  N   -0.061602   0.007146  -0.000129   0.007458  -0.063668   0.221893
     6  C    0.269896   0.084758  -0.143640   0.100273   0.317212  -0.038085
     7  C    5.156773   0.320704   0.060016  -0.134636   0.050146   0.002894
     8  C    0.320704   4.969542   0.339294   0.075521  -0.122088  -0.000310
     9  C    0.060016   0.339294   4.989617   0.328319   0.059709   0.000082
    10  C   -0.134636   0.075521   0.328319   4.979592   0.320760  -0.001276
    11  C    0.050146  -0.122088   0.059709   0.320760   5.014267   0.001788
    12  C    0.002894  -0.000310   0.000082  -0.001276   0.001788   5.243439
    13  C   -0.001064   0.000101  -0.000021  -0.000260  -0.005771   0.320176
    14  C    0.000057   0.000003   0.000002  -0.000008  -0.000198   0.094131
    15  C   -0.000007   0.000000  -0.000000   0.000002  -0.000027  -0.142458
    16  C    0.000010  -0.000000   0.000000   0.000003   0.000091   0.086765
    17  C   -0.000900   0.000011  -0.000007   0.000050  -0.000976   0.291204
    18  H    0.003718   0.000528   0.000005  -0.000027  -0.000097  -0.000022
    19  H   -0.000026   0.000001  -0.000000  -0.000000   0.000002   0.000009
    20  H   -0.000016  -0.000000   0.000000  -0.000000   0.000003   0.000647
    21  H    0.452019  -0.048399   0.011878  -0.002112   0.012261  -0.000459
    22  H   -0.059094   0.446005  -0.056638   0.011020  -0.001376   0.000007
    23  H    0.012497  -0.059796   0.450433  -0.058352   0.012190   0.000000
    24  H   -0.001293   0.011054  -0.057962   0.445937  -0.055602  -0.000016
    25  H    0.013119  -0.002203   0.011758  -0.055264   0.451294   0.007184
    26  H   -0.001612   0.000181  -0.000021  -0.000225  -0.001329  -0.061122
    27  H    0.000002  -0.000000   0.000000  -0.000001   0.000014   0.012858
    28  H    0.000000   0.000000  -0.000000   0.000000  -0.000000  -0.001665
    29  H    0.000000   0.000000   0.000000  -0.000000  -0.000002   0.013232
    30  H   -0.000014   0.000000   0.000000  -0.000002   0.000095  -0.072035
              13         14         15         16         17         18
     1  N   -0.000000   0.000000   0.000000   0.000000   0.000000   0.385858
     2  C   -0.000542   0.000007   0.000002   0.000017   0.000935  -0.013274
     3  C    0.000582  -0.000006  -0.000008  -0.000150  -0.001102   0.007691
     4  C    0.001447   0.000067   0.000131   0.000012  -0.006774  -0.020250
     5  N   -0.061533   0.007227  -0.000108   0.006640  -0.061767   0.000346
     6  C    0.001698  -0.001354   0.000085  -0.000242   0.003147   0.000347
     7  C   -0.001064   0.000057  -0.000007   0.000010  -0.000900   0.003718
     8  C    0.000101   0.000003   0.000000  -0.000000   0.000011   0.000528
     9  C   -0.000021   0.000002  -0.000000   0.000000  -0.000007   0.000005
    10  C   -0.000260  -0.000008   0.000002   0.000003   0.000050  -0.000027
    11  C   -0.005771  -0.000198  -0.000027   0.000091  -0.000976  -0.000097
    12  C    0.320176   0.094131  -0.142458   0.086765   0.291204  -0.000022
    13  C    5.017014   0.329899   0.057680  -0.122080   0.045380   0.000000
    14  C    0.329899   4.968848   0.333631   0.072474  -0.128548  -0.000000
    15  C    0.057680   0.333631   4.986064   0.341768   0.057600   0.000000
    16  C   -0.122080   0.072474   0.341768   4.947337   0.339265  -0.000000
    17  C    0.045380  -0.128548   0.057600   0.339265   5.085537   0.000002
    18  H    0.000000  -0.000000   0.000000  -0.000000   0.000002   0.467115
    19  H   -0.000000   0.000000  -0.000000   0.000000  -0.000000  -0.022594
    20  H   -0.000008  -0.000001   0.000000   0.000024   0.000432  -0.000082
    21  H    0.000104   0.000000   0.000000   0.000000  -0.000025   0.000422
    22  H   -0.000003  -0.000000   0.000000   0.000000   0.000000   0.000012
    23  H   -0.000000   0.000000  -0.000000   0.000000  -0.000000  -0.000001
    24  H    0.000014  -0.000001   0.000000  -0.000000   0.000002  -0.000000
    25  H   -0.001261  -0.000230  -0.000019   0.000171  -0.001143  -0.000003
    26  H    0.449480  -0.054249   0.011747  -0.002112   0.012895  -0.000000
    27  H   -0.056311   0.445916  -0.058069   0.011076  -0.001321   0.000000
    28  H    0.012198  -0.058652   0.449663  -0.059229   0.012317  -0.000000
    29  H   -0.001295   0.010961  -0.057071   0.445077  -0.057314  -0.000000
    30  H    0.012419  -0.002030   0.011966  -0.048557   0.449621   0.000001
              19         20         21         22         23         24
     1  N    0.366929  -0.000985   0.000969  -0.000009   0.000000  -0.000000
     2  C   -0.006512  -0.050145  -0.000304   0.000011  -0.000000   0.000001
     3  C   -0.011057   0.467465  -0.000356  -0.000001  -0.000000  -0.000000
     4  C    0.011770  -0.045569   0.001971  -0.000019  -0.000000  -0.000002
     5  N   -0.000049  -0.000992  -0.008824  -0.000134   0.000007  -0.000117
     6  C   -0.000015  -0.000093  -0.076364   0.013475  -0.001754   0.012679
     7  C   -0.000026  -0.000016   0.452019  -0.059094   0.012497  -0.001293
     8  C    0.000001  -0.000000  -0.048399   0.446005  -0.059796   0.011054
     9  C   -0.000000   0.000000   0.011878  -0.056638   0.450433  -0.057962
    10  C   -0.000000  -0.000000  -0.002112   0.011020  -0.058352   0.445937
    11  C    0.000002   0.000003   0.012261  -0.001376   0.012190  -0.055602
    12  C    0.000009   0.000647  -0.000459   0.000007   0.000000  -0.000016
    13  C   -0.000000  -0.000008   0.000104  -0.000003  -0.000000   0.000014
    14  C    0.000000  -0.000001   0.000000  -0.000000   0.000000  -0.000001
    15  C   -0.000000   0.000000   0.000000   0.000000  -0.000000   0.000000
    16  C    0.000000   0.000024   0.000000   0.000000   0.000000  -0.000000
    17  C   -0.000000   0.000432  -0.000025   0.000000  -0.000000   0.000002
    18  H   -0.022594  -0.000082   0.000422   0.000012  -0.000001  -0.000000
    19  H    0.468604   0.000435  -0.000014   0.000000  -0.000000   0.000000
    20  H    0.000435   0.523341  -0.000002   0.000000  -0.000000  -0.000000
    21  H   -0.000014  -0.000002   0.632478  -0.010520  -0.000143   0.000016
    22  H    0.000000   0.000000  -0.010520   0.610401  -0.010020  -0.000159
    23  H   -0.000000  -0.000000  -0.000143  -0.010020   0.603116  -0.009884
    24  H    0.000000  -0.000000   0.000016  -0.000159  -0.009884   0.603186
    25  H   -0.000000  -0.000000  -0.000100   0.000012  -0.000127  -0.009876
    26  H   -0.000000  -0.000001   0.000071   0.000001  -0.000000   0.000000
    27  H   -0.000000  -0.000000  -0.000000  -0.000000   0.000000  -0.000000
    28  H    0.000000   0.000000  -0.000000   0.000000  -0.000000   0.000000
    29  H   -0.000000  -0.000000   0.000000  -0.000000   0.000000  -0.000000
    30  H   -0.000001  -0.000049  -0.000001  -0.000000  -0.000000  -0.000000
              25         26         27         28         29         30
     1  N   -0.000000  -0.000000  -0.000000   0.000000  -0.000000  -0.000002
     2  C   -0.000084  -0.000059  -0.000000   0.000000  -0.000002  -0.000271
     3  C   -0.000037  -0.000061   0.000000  -0.000000   0.000014  -0.000003
     4  C   -0.000595  -0.000786  -0.000004  -0.000000  -0.000032   0.003353
     5  N   -0.011663  -0.011911  -0.000119   0.000008  -0.000127  -0.011505
     6  C   -0.060295   0.007861  -0.000015   0.000000   0.000007  -0.000420
     7  C    0.013119  -0.001612   0.000002   0.000000   0.000000  -0.000014
     8  C   -0.002203   0.000181  -0.000000   0.000000   0.000000   0.000000
     9  C    0.011758  -0.000021   0.000000  -0.000000   0.000000   0.000000
    10  C   -0.055264  -0.000225  -0.000001   0.000000  -0.000000  -0.000002
    11  C    0.451294  -0.001329   0.000014  -0.000000  -0.000002   0.000095
    12  C    0.007184  -0.061122   0.012858  -0.001665   0.013232  -0.072035
    13  C   -0.001261   0.449480  -0.056311   0.012198  -0.001295   0.012419
    14  C   -0.000230  -0.054249   0.445916  -0.058652   0.010961  -0.002030
    15  C   -0.000019   0.011747  -0.058069   0.449663  -0.057071   0.011966
    16  C    0.000171  -0.002112   0.011076  -0.059229   0.445077  -0.048557
    17  C   -0.001143   0.012895  -0.001321   0.012317  -0.057314   0.449621
    18  H   -0.000003  -0.000000   0.000000  -0.000000  -0.000000   0.000001
    19  H   -0.000000  -0.000000  -0.000000   0.000000  -0.000000  -0.000001
    20  H   -0.000000  -0.000001  -0.000000   0.000000  -0.000000  -0.000049
    21  H   -0.000100   0.000071  -0.000000  -0.000000   0.000000  -0.000001
    22  H    0.000012   0.000001  -0.000000   0.000000  -0.000000  -0.000000
    23  H   -0.000127  -0.000000   0.000000  -0.000000   0.000000  -0.000000
    24  H   -0.009876   0.000000  -0.000000   0.000000  -0.000000  -0.000000
    25  H    0.608131  -0.000022   0.000000  -0.000000  -0.000000   0.000047
    26  H   -0.000022   0.614619  -0.010088  -0.000134   0.000013  -0.000102
    27  H    0.000000  -0.010088   0.607256  -0.009968  -0.000160   0.000014
    28  H   -0.000000  -0.000134  -0.009968   0.605661  -0.010024  -0.000148
    29  H   -0.000000   0.000013  -0.000160  -0.010024   0.611065  -0.010595
    30  H    0.000047  -0.000102   0.000014  -0.000148  -0.010595   0.636306
 Mulliken charges:
               1
     1  N   -0.022734
     2  C    0.127195
     3  C   -0.169973
     4  C    0.239657
     5  N   -0.173011
     6  C    0.070000
     7  C   -0.070564
     8  C   -0.021870
     9  C    0.007215
    10  C   -0.016811
    11  C    0.008561
    12  C    0.077802
    13  C    0.001958
    14  C   -0.017947
    15  C    0.007429
    16  C   -0.018359
    17  C   -0.038520
    18  H    0.190305
    19  H    0.192518
    20  H    0.105599
    21  H    0.035435
    22  H    0.057028
    23  H    0.061834
    24  H    0.062024
    25  H    0.051205
    26  H    0.046965
    27  H    0.058920
    28  H    0.059974
    29  H    0.056253
    30  H    0.031912
 Sum of Mulliken charges =   1.00000
 Mulliken charges with hydrogens summed into heavy atoms:
               1
     1  N    0.360089
     2  C    0.127195
     3  C   -0.064373
     4  C    0.239657
     5  N   -0.173011
     6  C    0.070000
     7  C   -0.035129
     8  C    0.035158
     9  C    0.069049
    10  C    0.045213
    11  C    0.059767
    12  C    0.077802
    13  C    0.048922
    14  C    0.040973
    15  C    0.067403
    16  C    0.037894
    17  C   -0.006608
 Electronic spatial extent (au):  <R**2>=           4038.2972
 Charge=              1.0000 electrons
 Dipole moment (field-independent basis, Debye):
    X=             -3.6168    Y=              6.3746    Z=              0.1889  Tot=              7.3316
 Quadrupole moment (field-independent basis, Debye-Ang):
   XX=            -54.6609   YY=            -54.4465   ZZ=            -91.4055
   XY=             -9.9822   XZ=              1.9641   YZ=              0.7108
 Traceless Quadrupole moment (field-independent basis, Debye-Ang):
   XX=             12.1767   YY=             12.3911   ZZ=            -24.5678
   XY=             -9.9822   XZ=              1.9641   YZ=              0.7108
 Octapole moment (field-independent basis, Debye-Ang**2):
  XXX=            -16.8517  YYY=            113.3169  ZZZ=              0.7148  XYY=            -65.1715
  XXY=             15.1804  XXZ=             -2.3361  XZZ=             -1.1243  YZZ=             -5.5531
  YYZ=              7.3728  XYZ=             13.4803
 Hexadecapole moment (field-independent basis, Debye-Ang**3):
 XXXX=          -2543.1582 YYYY=          -1294.7821 ZZZZ=           -381.4969 XXXY=           -154.7303
 XXXZ=             60.3163 YYYX=           -143.0314 YYYZ=            -32.0311 ZZZX=             10.1905
 ZZZY=              1.0925 XXYY=           -562.4531 XXZZ=           -576.8319 YYZZ=           -350.6850
 XXYZ=             52.6348 YYXZ=            -44.1403 ZZXY=             -1.7891
 N-N= 1.088622168538D+03 E-N=-3.752567784286D+03  KE= 6.796977726927D+02
 No NMR shielding tensors so no spin-rotation constants.
 Leave Link  601 at Wed May 11 03:38:21 2022, MaxMem=  6442450944 cpu:               2.7 elap:               0.2
 (Enter /mnt/gpfs3_amd/share/apps/amd/gaussian/g16-A.03/g16/l9999.exe)
 1\1\GINC-ROME056\FOpt\RLC-wHPBE\def2SVP\C15H13N2(1+)\RDU230\11-May-202
 2\0\\#P LC-wHPBE/Def2SVP opt scf(maxcyc=512)\\H13 C15 N2\\1,1\N,-0.330
 7389292,3.9257894463,-0.326540119\C,0.5491408981,2.9604464081,-0.23533
 74387\C,1.8293084336,2.4985323885,-0.1884273379\C,0.8075304788,1.58991
 67453,-0.1260374487\N,0.3406570474,0.3711127542,-0.0306510261\C,-1.082
 0004227,0.1559652248,-0.0989933009\C,-1.8114844575,0.709094446,-1.1459
 329563\C,-3.1886506994,0.5218357184,-1.1896413012\C,-3.8211359466,-0.2
 265806419,-0.2047051057\C,-3.0775279008,-0.7910202497,0.8265916147\C,-
 1.7038808699,-0.6011611765,0.8870851378\C,1.2398228445,-0.7431475075,0
 .1367012323\C,1.0985927294,-1.8539811347,-0.6870949108\C,1.9679099287,
 -2.924401848,-0.5309241899\C,2.9689707127,-2.8807020737,0.4336971581\C
 ,3.0977439297,-1.7665808809,1.2534706679\C,2.226616559,-0.6930139233,1
 .1134131427\H,-1.3232275933,3.7189490132,-0.2962769044\H,-0.0379301016
 ,4.8935782448,-0.4062820923\H,2.897607211,2.7017898816,-0.1911547673\H
 ,-1.3031618506,1.2585323494,-1.9430820993\H,-3.7672007203,0.9466707633
 ,-2.0126679944\H,-4.9012741516,-0.3804459761,-0.2457333265\H,-3.573509
 2577,-1.3838467344,1.5977917893\H,-1.1140374754,-1.0389364493,1.695043
 0881\H,0.312346699,-1.8801139194,-1.4444051238\H,1.8647433525,-3.80055
 72229,-1.1741820969\H,3.6510208914,-3.7252442816,0.5502751339\H,3.8752
 430612,-1.7350877878,2.0193592449\H,2.3085055998,0.1726094237,1.775058
 33\\Version=AM64L-G16RevA.03\State=1-A\HF=-687.6563848\RMSD=9.333e-09\
 RMSF=7.485e-06\Dipole=0.2400321,2.8688283,-0.1800741\Quadrupole=1.6375
 323,15.6442974,-17.2818297,-2.1618375,3.8229374,-3.9227538\PG=C01 [X(C
 15H13N2)]\\@


 TRUTH, IN SCIENCE, CAN BE DEFINED AS THE WORKING HYPOTHESIS 
 BEST FITTED TO OPEN THE WAY TO THE NEXT BETTER ONE.

                              -- KONRAD LORENZ
 Job cpu time:       0 days  5 hours 11 minutes  1.2 seconds.
 Elapsed time:       0 days  0 hours 19 minutes 48.8 seconds.
 File lengths (MBytes):  RWF=    168 Int=      0 D2E=      0 Chk=     16 Scr=     16
 Normal termination of Gaussian 16 at Wed May 11 03:38:21 2022.
