 Entering Gaussian System, Link 0=/mnt/gpfs3_amd/share/apps/amd/gaussian/g16-A.03/g16/g16
 Input=/scratch/rdu230/d3tales/high_throughput/runfiles//06IVBN/gaussian/gas_phase/opt/opt_cation1.com
 Output=/scratch/rdu230/d3tales/high_throughput/runfiles//06IVBN/gaussian/gas_phase/opt/opt_cation1.log
 Initial command:
 /mnt/gpfs3_amd/share/apps/amd/gaussian/g16-A.03/g16/l1.exe "/scratch/rdu230/d3tales/high_throughput/runfiles/06IVBN/gaussian/gas_phase/opt/Gau-2145447.inp" -scrdir="/scratch/rdu230/d3tales/high_throughput/runfiles/06IVBN/gaussian/gas_phase/opt/"
 Entering Link 1 = /mnt/gpfs3_amd/share/apps/amd/gaussian/g16-A.03/g16/l1.exe PID=   2145448.
  
 Copyright (c) 1988,1990,1992,1993,1995,1998,2003,2009,2016,
            Gaussian, Inc.  All Rights Reserved.
  
 This is part of the Gaussian(R) 16 program.  It is based on
 the Gaussian(R) 09 system (copyright 2009, Gaussian, Inc.),
 the Gaussian(R) 03 system (copyright 2003, Gaussian, Inc.),
 the Gaussian(R) 98 system (copyright 1998, Gaussian, Inc.),
 the Gaussian(R) 94 system (copyright 1995, Gaussian, Inc.),
 the Gaussian 92(TM) system (copyright 1992, Gaussian, Inc.),
 the Gaussian 90(TM) system (copyright 1990, Gaussian, Inc.),
 the Gaussian 88(TM) system (copyright 1988, Gaussian, Inc.),
 the Gaussian 86(TM) system (copyright 1986, Carnegie Mellon
 University), and the Gaussian 82(TM) system (copyright 1983,
 Carnegie Mellon University). Gaussian is a federally registered
 trademark of Gaussian, Inc.
  
 This software contains proprietary and confidential information,
 including trade secrets, belonging to Gaussian, Inc.
  
 This software is provided under written license and may be
 used, copied, transmitted, or stored only in accord with that
 written license.
  
 The following legend is applicable only to US Government
 contracts under FAR:
  
                    RESTRICTED RIGHTS LEGEND
  
 Use, reproduction and disclosure by the US Government is
 subject to restrictions as set forth in subparagraphs (a)
 and (c) of the Commercial Computer Software - Restricted
 Rights clause in FAR 52.227-19.
  
 Gaussian, Inc.
 340 Quinnipiac St., Bldg. 40, Wallingford CT 06492
  
  
 ---------------------------------------------------------------
 Warning -- This program may not be used in any manner that
 competes with the business of Gaussian, Inc. or will provide
 assistance to any competitor of Gaussian, Inc.  The licensee
 of this program is prohibited from giving any competitor of
 Gaussian, Inc. access to this program.  By using this program,
 the user acknowledges that Gaussian, Inc. is engaged in the
 business of creating and licensing software in the field of
 computational chemistry and represents and warrants to the
 licensee that it is not a competitor of Gaussian, Inc. and that
 it will not use this program in any manner prohibited above.
 ---------------------------------------------------------------
  

 Cite this work as:
 Gaussian 16, Revision A.03,
 M. J. Frisch, G. W. Trucks, H. B. Schlegel, G. E. Scuseria, 
 M. A. Robb, J. R. Cheeseman, G. Scalmani, V. Barone, 
 G. A. Petersson, H. Nakatsuji, X. Li, M. Caricato, A. V. Marenich, 
 J. Bloino, B. G. Janesko, R. Gomperts, B. Mennucci, H. P. Hratchian, 
 J. V. Ortiz, A. F. Izmaylov, J. L. Sonnenberg, D. Williams-Young, 
 F. Ding, F. Lipparini, F. Egidi, J. Goings, B. Peng, A. Petrone, 
 T. Henderson, D. Ranasinghe, V. G. Zakrzewski, J. Gao, N. Rega, 
 G. Zheng, W. Liang, M. Hada, M. Ehara, K. Toyota, R. Fukuda, 
 J. Hasegawa, M. Ishida, T. Nakajima, Y. Honda, O. Kitao, H. Nakai, 
 T. Vreven, K. Throssell, J. A. Montgomery, Jr., J. E. Peralta, 
 F. Ogliaro, M. J. Bearpark, J. J. Heyd, E. N. Brothers, K. N. Kudin, 
 V. N. Staroverov, T. A. Keith, R. Kobayashi, J. Normand, 
 K. Raghavachari, A. P. Rendell, J. C. Burant, S. S. Iyengar, 
 J. Tomasi, M. Cossi, J. M. Millam, M. Klene, C. Adamo, R. Cammi, 
 J. W. Ochterski, R. L. Martin, K. Morokuma, O. Farkas, 
 J. B. Foresman, and D. J. Fox, Gaussian, Inc., Wallingford CT, 2016.
 
 ******************************************
 Gaussian 16:  AM64L-G16RevA.03 25-Dec-2016
                11-May-2022 
 ******************************************
 %chk=/scratch/rdu230/d3tales/high_throughput/runfiles//06IVBN/gaussian/gas_phase
 /opt/opt_cation1.chk
 %mem=48GB
 %nprocshared=16
 Will use up to   16 processors via shared memory.
 ----------------------------------------------------------------------
 #P LC-wHPBE/Def2SVP iop(3/107=0225700000, 3/108=0225700000) opt scf(ma
 xcyc=512)
 ----------------------------------------------------------------------
 1/18=20,19=15,26=3,38=1/1,3;
 2/9=110,12=2,17=6,18=5,40=1/2;
 3/5=43,7=101,11=2,25=1,30=1,71=1,74=-71,107=225700000,108=225700000/1,2,3;
 4//1;
 5/5=2,7=512,38=5/2;
 6/7=2,8=2,9=2,10=2,28=1/1;
 7//1,2,3,16;
 1/18=20,19=15,26=3/3(2);
 2/9=110/2;
 99//99;
 2/9=110/2;
 3/5=43,7=101,11=2,25=1,30=1,71=1,74=-71,107=225700000,108=225700000/1,2,3;
 4/5=5,16=3,69=1/1;
 5/5=2,7=512,38=5/2;
 7//1,2,3,16;
 1/18=20,19=15,26=3/3(-5);
 2/9=110/2;
 6/7=2,8=2,9=2,10=2,19=2,28=1/1;
 99/9=1/99;
 Leave Link    1 at Wed May 11 06:03:51 2022, MaxMem=  6442450944 cpu:               4.6 elap:               0.3
 (Enter /mnt/gpfs3_amd/share/apps/amd/gaussian/g16-A.03/g16/l101.exe)
 ----------
 H13 C15 N2
 ----------
 Symbolic Z-matrix:
 Charge =  2 Multiplicity = 2
 N                     0.33376   4.15782   0.6451 
 C                     0.70776   3.01428  -0.09062 
 C                     1.468     2.52888  -1.15258 
 C                     0.66849   1.689    -0.35409 
 N                     0.24408   0.33995  -0.14314 
 C                    -1.14087   0.06512  -0.23486 
 C                    -1.85797   0.60207  -1.28606 
 C                    -3.22718   0.34413  -1.39705 
 C                    -3.88899  -0.44057  -0.47542 
 C                    -3.17532  -0.97341   0.56846 
 C                    -1.80596  -0.71674   0.6814 
 C                     1.16004  -0.71147   0.15058 
 C                     1.05086  -1.9283   -0.49474 
 C                     1.94335  -2.95253  -0.20842 
 C                     2.95757  -2.80922   0.71136 
 C                     3.06316  -1.59688   1.3516 
 C                     2.17231  -0.56602   1.06968 
 H                     0.40467   4.15651   1.67524 
 H                    -0.01024   4.99257   0.14381 
 H                     2.15671   2.69432  -1.97197 
 H                    -1.36581   1.22216  -2.02541 
 H                    -3.8064    0.75848  -2.21752 
 H                    -4.95653  -0.61677  -0.59876 
 H                    -3.69211  -1.58853   1.29163 
 H                    -1.2422   -1.13469   1.50163 
 H                     0.25247  -2.03606  -1.21649 
 H                     1.8342   -3.88965  -0.72653 
 H                     3.66219  -3.59588   0.94738 
 H                     3.84408  -1.40826   2.0954 
 H                     2.24587   0.3997    1.5708 
 
 Add atom      3 valence  3 ND=      2 dihedral       2      3      4     20
 ITRead=  0  0  0  0  0  0  0  0  0  0  0  0  0  0  0  0  0  0  0  0
 ITRead=  0  0  0  0  0  0  0  0  0  0
 MicOpt= -1 -1 -1 -1 -1 -1 -1 -1 -1 -1 -1 -1 -1 -1 -1 -1 -1 -1 -1 -1
 MicOpt= -1 -1 -1 -1 -1 -1 -1 -1 -1 -1
 NAtoms=     30 NQM=       30 NQMF=       0 NMMI=      0 NMMIF=      0
                NMic=       0 NMicF=      0.
                    Isotopes and Nuclear Properties:
 (Nuclear quadrupole moments (NQMom) in fm**2, nuclear magnetic moments (NMagM)
  in nuclear magnetons)

  Atom         1           2           3           4           5           6           7           8           9          10
 IAtWgt=          14          12          12          12          14          12          12          12          12          12
 AtmWgt=  14.0030740  12.0000000  12.0000000  12.0000000  14.0030740  12.0000000  12.0000000  12.0000000  12.0000000  12.0000000
 NucSpn=           2           0           0           0           2           0           0           0           0           0
 AtZEff=  -0.0000000  -0.0000000  -0.0000000  -0.0000000  -0.0000000  -0.0000000  -0.0000000  -0.0000000  -0.0000000  -0.0000000
 NQMom=    2.0440000   0.0000000   0.0000000   0.0000000   2.0440000   0.0000000   0.0000000   0.0000000   0.0000000   0.0000000
 NMagM=    0.4037610   0.0000000   0.0000000   0.0000000   0.4037610   0.0000000   0.0000000   0.0000000   0.0000000   0.0000000
 AtZNuc=   7.0000000   6.0000000   6.0000000   6.0000000   7.0000000   6.0000000   6.0000000   6.0000000   6.0000000   6.0000000

  Atom        11          12          13          14          15          16          17          18          19          20
 IAtWgt=          12          12          12          12          12          12          12           1           1           1
 AtmWgt=  12.0000000  12.0000000  12.0000000  12.0000000  12.0000000  12.0000000  12.0000000   1.0078250   1.0078250   1.0078250
 NucSpn=           0           0           0           0           0           0           0           1           1           1
 AtZEff=  -0.0000000  -0.0000000  -0.0000000  -0.0000000  -0.0000000  -0.0000000  -0.0000000  -0.0000000  -0.0000000  -0.0000000
 NQMom=    0.0000000   0.0000000   0.0000000   0.0000000   0.0000000   0.0000000   0.0000000   0.0000000   0.0000000   0.0000000
 NMagM=    0.0000000   0.0000000   0.0000000   0.0000000   0.0000000   0.0000000   0.0000000   2.7928460   2.7928460   2.7928460
 AtZNuc=   6.0000000   6.0000000   6.0000000   6.0000000   6.0000000   6.0000000   6.0000000   1.0000000   1.0000000   1.0000000

  Atom        21          22          23          24          25          26          27          28          29          30
 IAtWgt=           1           1           1           1           1           1           1           1           1           1
 AtmWgt=   1.0078250   1.0078250   1.0078250   1.0078250   1.0078250   1.0078250   1.0078250   1.0078250   1.0078250   1.0078250
 NucSpn=           1           1           1           1           1           1           1           1           1           1
 AtZEff=  -0.0000000  -0.0000000  -0.0000000  -0.0000000  -0.0000000  -0.0000000  -0.0000000  -0.0000000  -0.0000000  -0.0000000
 NQMom=    0.0000000   0.0000000   0.0000000   0.0000000   0.0000000   0.0000000   0.0000000   0.0000000   0.0000000   0.0000000
 NMagM=    2.7928460   2.7928460   2.7928460   2.7928460   2.7928460   2.7928460   2.7928460   2.7928460   2.7928460   2.7928460
 AtZNuc=   1.0000000   1.0000000   1.0000000   1.0000000   1.0000000   1.0000000   1.0000000   1.0000000   1.0000000   1.0000000
 Leave Link  101 at Wed May 11 06:03:51 2022, MaxMem=  6442450944 cpu:               2.4 elap:               0.2
 (Enter /mnt/gpfs3_amd/share/apps/amd/gaussian/g16-A.03/g16/l103.exe)

 GradGradGradGradGradGradGradGradGradGradGradGradGradGradGradGradGradGrad
 Berny optimization.
 Initialization pass.
                           ----------------------------
                           !    Initial Parameters    !
                           ! (Angstroms and Degrees)  !
 --------------------------                            --------------------------
 ! Name  Definition              Value          Derivative Info.                !
 --------------------------------------------------------------------------------
 ! R1    R(1,2)                  1.4103         estimate D2E/DX2                !
 ! R2    R(1,18)                 1.0326         estimate D2E/DX2                !
 ! R3    R(1,19)                 1.0327         estimate D2E/DX2                !
 ! R4    R(2,3)                  1.3933         estimate D2E/DX2                !
 ! R5    R(2,4)                  1.3518         estimate D2E/DX2                !
 ! R6    R(3,4)                  1.4079         estimate D2E/DX2                !
 ! R7    R(3,20)                 1.0831         estimate D2E/DX2                !
 ! R8    R(4,5)                  1.4299         estimate D2E/DX2                !
 ! R9    R(5,6)                  1.4149         estimate D2E/DX2                !
 ! R10   R(5,12)                 1.425          estimate D2E/DX2                !
 ! R11   R(6,7)                  1.3811         estimate D2E/DX2                !
 ! R12   R(6,11)                 1.3759         estimate D2E/DX2                !
 ! R13   R(7,8)                  1.3977         estimate D2E/DX2                !
 ! R14   R(7,21)                 1.0832         estimate D2E/DX2                !
 ! R15   R(8,9)                  1.3795         estimate D2E/DX2                !
 ! R16   R(8,22)                 1.0864         estimate D2E/DX2                !
 ! R17   R(9,10)                 1.3722         estimate D2E/DX2                !
 ! R18   R(9,23)                 1.089          estimate D2E/DX2                !
 ! R19   R(10,11)                1.3978         estimate D2E/DX2                !
 ! R20   R(10,24)                1.0809         estimate D2E/DX2                !
 ! R21   R(11,25)                1.0795         estimate D2E/DX2                !
 ! R22   R(12,13)                1.3817         estimate D2E/DX2                !
 ! R23   R(12,17)                1.375          estimate D2E/DX2                !
 ! R24   R(13,14)                1.3884         estimate D2E/DX2                !
 ! R25   R(13,26)                1.0817         estimate D2E/DX2                !
 ! R26   R(14,15)                1.3767         estimate D2E/DX2                !
 ! R27   R(14,27)                1.0764         estimate D2E/DX2                !
 ! R28   R(15,16)                1.3751         estimate D2E/DX2                !
 ! R29   R(15,28)                1.0821         estimate D2E/DX2                !
 ! R30   R(16,17)                1.3913         estimate D2E/DX2                !
 ! R31   R(16,29)                1.0948         estimate D2E/DX2                !
 ! R32   R(17,30)                1.0905         estimate D2E/DX2                !
 ! A1    A(2,1,18)             120.0809         estimate D2E/DX2                !
 ! A2    A(2,1,19)             119.3772         estimate D2E/DX2                !
 ! A3    A(18,1,19)            120.5419         estimate D2E/DX2                !
 ! A4    A(1,2,3)              145.5691         estimate D2E/DX2                !
 ! A5    A(1,2,4)              152.741          estimate D2E/DX2                !
 ! A6    A(2,3,20)             150.4994         estimate D2E/DX2                !
 ! A7    A(4,3,20)             151.797          estimate D2E/DX2                !
 ! A8    A(2,4,5)              154.802          estimate D2E/DX2                !
 ! A9    A(3,4,5)              144.5915         estimate D2E/DX2                !
 ! A10   A(4,5,6)              117.6596         estimate D2E/DX2                !
 ! A11   A(4,5,12)             122.3936         estimate D2E/DX2                !
 ! A12   A(6,5,12)             119.9468         estimate D2E/DX2                !
 ! A13   A(5,6,7)              118.8175         estimate D2E/DX2                !
 ! A14   A(5,6,11)             122.7069         estimate D2E/DX2                !
 ! A15   A(7,6,11)             118.4756         estimate D2E/DX2                !
 ! A16   A(6,7,8)              119.8222         estimate D2E/DX2                !
 ! A17   A(6,7,21)             120.4072         estimate D2E/DX2                !
 ! A18   A(8,7,21)             119.7706         estimate D2E/DX2                !
 ! A19   A(7,8,9)              121.4577         estimate D2E/DX2                !
 ! A20   A(7,8,22)             120.7872         estimate D2E/DX2                !
 ! A21   A(9,8,22)             117.7551         estimate D2E/DX2                !
 ! A22   A(8,9,10)             118.6588         estimate D2E/DX2                !
 ! A23   A(8,9,23)             119.1208         estimate D2E/DX2                !
 ! A24   A(10,9,23)            122.2204         estimate D2E/DX2                !
 ! A25   A(9,10,11)            119.9788         estimate D2E/DX2                !
 ! A26   A(9,10,24)            118.7681         estimate D2E/DX2                !
 ! A27   A(11,10,24)           121.2531         estimate D2E/DX2                !
 ! A28   A(6,11,10)            121.6068         estimate D2E/DX2                !
 ! A29   A(6,11,25)            118.2654         estimate D2E/DX2                !
 ! A30   A(10,11,25)           120.1277         estimate D2E/DX2                !
 ! A31   A(5,12,13)            120.1809         estimate D2E/DX2                !
 ! A32   A(5,12,17)            122.2039         estimate D2E/DX2                !
 ! A33   A(13,12,17)           117.6151         estimate D2E/DX2                !
 ! A34   A(12,13,14)           120.1719         estimate D2E/DX2                !
 ! A35   A(12,13,26)           117.2392         estimate D2E/DX2                !
 ! A36   A(14,13,26)           122.5889         estimate D2E/DX2                !
 ! A37   A(13,14,15)           122.3155         estimate D2E/DX2                !
 ! A38   A(13,14,27)           118.5441         estimate D2E/DX2                !
 ! A39   A(15,14,27)           119.1404         estimate D2E/DX2                !
 ! A40   A(14,15,16)           117.3509         estimate D2E/DX2                !
 ! A41   A(14,15,28)           123.3506         estimate D2E/DX2                !
 ! A42   A(16,15,28)           119.2985         estimate D2E/DX2                !
 ! A43   A(15,16,17)           120.6459         estimate D2E/DX2                !
 ! A44   A(15,16,29)           121.5331         estimate D2E/DX2                !
 ! A45   A(17,16,29)           117.8209         estimate D2E/DX2                !
 ! A46   A(12,17,16)           121.9006         estimate D2E/DX2                !
 ! A47   A(12,17,30)           116.7769         estimate D2E/DX2                !
 ! A48   A(16,17,30)           121.3225         estimate D2E/DX2                !
 ! D1    D(18,1,2,3)          -129.1751         estimate D2E/DX2                !
 ! D2    D(18,1,2,4)            50.8249         estimate D2E/DX2                !
 ! D3    D(19,1,2,3)            50.8253         estimate D2E/DX2                !
 ! D4    D(19,1,2,4)          -129.1748         estimate D2E/DX2                !
 ! D5    D(1,2,3,20)             0.0            estimate D2E/DX2                !
 ! D6    D(1,2,4,5)              0.0            estimate D2E/DX2                !
 ! D7    D(2,3,4,20)          -180.0            estimate D2E/DX2                !
 ! D8    D(20,3,4,5)             0.0            estimate D2E/DX2                !
 ! D9    D(2,4,5,6)             60.0004         estimate D2E/DX2                !
 ! D10   D(2,4,5,12)          -119.9996         estimate D2E/DX2                !
 ! D11   D(3,4,5,6)           -119.9996         estimate D2E/DX2                !
 ! D12   D(3,4,5,12)            60.0003         estimate D2E/DX2                !
 ! D13   D(4,5,6,7)             45.0            estimate D2E/DX2                !
 ! D14   D(4,5,6,11)          -134.9998         estimate D2E/DX2                !
 ! D15   D(12,5,6,7)          -134.9999         estimate D2E/DX2                !
 ! D16   D(12,5,6,11)           45.0002         estimate D2E/DX2                !
 ! D17   D(4,5,12,13)         -134.9997         estimate D2E/DX2                !
 ! D18   D(4,5,12,17)           45.0006         estimate D2E/DX2                !
 ! D19   D(6,5,12,13)           45.0002         estimate D2E/DX2                !
 ! D20   D(6,5,12,17)         -134.9994         estimate D2E/DX2                !
 ! D21   D(5,6,7,8)           -179.9998         estimate D2E/DX2                !
 ! D22   D(5,6,7,21)            -0.0001         estimate D2E/DX2                !
 ! D23   D(11,6,7,8)             0.0            estimate D2E/DX2                !
 ! D24   D(11,6,7,21)          179.9998         estimate D2E/DX2                !
 ! D25   D(5,6,11,10)          179.9998         estimate D2E/DX2                !
 ! D26   D(5,6,11,25)            0.0            estimate D2E/DX2                !
 ! D27   D(7,6,11,10)            0.0            estimate D2E/DX2                !
 ! D28   D(7,6,11,25)         -179.9999         estimate D2E/DX2                !
 ! D29   D(6,7,8,9)              0.0            estimate D2E/DX2                !
 ! D30   D(6,7,8,22)           179.9999         estimate D2E/DX2                !
 ! D31   D(21,7,8,9)          -179.9997         estimate D2E/DX2                !
 ! D32   D(21,7,8,22)            0.0002         estimate D2E/DX2                !
 ! D33   D(7,8,9,10)             0.0            estimate D2E/DX2                !
 ! D34   D(7,8,9,23)           179.9995         estimate D2E/DX2                !
 ! D35   D(22,8,9,10)         -180.0            estimate D2E/DX2                !
 ! D36   D(22,8,9,23)           -0.0004         estimate D2E/DX2                !
 ! D37   D(8,9,10,11)            0.0            estimate D2E/DX2                !
 ! D38   D(8,9,10,24)         -179.9999         estimate D2E/DX2                !
 ! D39   D(23,9,10,11)        -179.9995         estimate D2E/DX2                !
 ! D40   D(23,9,10,24)           0.0006         estimate D2E/DX2                !
 ! D41   D(9,10,11,6)            0.0            estimate D2E/DX2                !
 ! D42   D(9,10,11,25)         179.9998         estimate D2E/DX2                !
 ! D43   D(24,10,11,6)         179.9999         estimate D2E/DX2                !
 ! D44   D(24,10,11,25)         -0.0003         estimate D2E/DX2                !
 ! D45   D(5,12,13,14)        -179.9996         estimate D2E/DX2                !
 ! D46   D(5,12,13,26)           0.0004         estimate D2E/DX2                !
 ! D47   D(17,12,13,14)          0.0001         estimate D2E/DX2                !
 ! D48   D(17,12,13,26)       -180.0            estimate D2E/DX2                !
 ! D49   D(5,12,17,16)         179.9997         estimate D2E/DX2                !
 ! D50   D(5,12,17,30)          -0.0003         estimate D2E/DX2                !
 ! D51   D(13,12,17,16)          0.0            estimate D2E/DX2                !
 ! D52   D(13,12,17,30)       -179.9999         estimate D2E/DX2                !
 ! D53   D(12,13,14,15)         -0.0001         estimate D2E/DX2                !
 ! D54   D(12,13,14,27)       -179.9996         estimate D2E/DX2                !
 ! D55   D(26,13,14,15)        179.9999         estimate D2E/DX2                !
 ! D56   D(26,13,14,27)          0.0004         estimate D2E/DX2                !
 ! D57   D(13,14,15,16)          0.0001         estimate D2E/DX2                !
 ! D58   D(13,14,15,28)       -179.9998         estimate D2E/DX2                !
 ! D59   D(27,14,15,16)        179.9996         estimate D2E/DX2                !
 ! D60   D(27,14,15,28)         -0.0003         estimate D2E/DX2                !
 ! D61   D(14,15,16,17)         -0.0001         estimate D2E/DX2                !
 ! D62   D(14,15,16,29)        179.9994         estimate D2E/DX2                !
 ! D63   D(28,15,16,17)        179.9998         estimate D2E/DX2                !
 ! D64   D(28,15,16,29)         -0.0007         estimate D2E/DX2                !
 ! D65   D(15,16,17,12)          0.0            estimate D2E/DX2                !
 ! D66   D(15,16,17,30)        179.9999         estimate D2E/DX2                !
 ! D67   D(29,16,17,12)       -179.9995         estimate D2E/DX2                !
 ! D68   D(29,16,17,30)          0.0004         estimate D2E/DX2                !
 --------------------------------------------------------------------------------
 Trust Radius=3.00D-01 FncErr=1.00D-07 GrdErr=1.00D-06 EigMax=2.50D+02 EigMin=1.00D-04
 Number of steps in this run=    158 maximum allowed number of steps=    180.
 GradGradGradGradGradGradGradGradGradGradGradGradGradGradGradGradGradGrad

 Leave Link  103 at Wed May 11 06:03:51 2022, MaxMem=  6442450944 cpu:               0.1 elap:               0.0
 (Enter /mnt/gpfs3_amd/share/apps/amd/gaussian/g16-A.03/g16/l202.exe)
                          Input orientation:                          
 ---------------------------------------------------------------------
 Center     Atomic      Atomic             Coordinates (Angstroms)
 Number     Number       Type             X           Y           Z
 ---------------------------------------------------------------------
      1          7           0        0.333762    4.157815    0.645095
      2          6           0        0.707760    3.014278   -0.090620
      3          6           0        1.467998    2.528881   -1.152582
      4          6           0        0.668485    1.689002   -0.354088
      5          7           0        0.244077    0.339947   -0.143144
      6          6           0       -1.140873    0.065116   -0.234857
      7          6           0       -1.857971    0.602073   -1.286055
      8          6           0       -3.227183    0.344125   -1.397051
      9          6           0       -3.888993   -0.440571   -0.475421
     10          6           0       -3.175319   -0.973413    0.568464
     11          6           0       -1.805960   -0.716742    0.681401
     12          6           0        1.160043   -0.711465    0.150577
     13          6           0        1.050865   -1.928304   -0.494735
     14          6           0        1.943352   -2.952527   -0.208423
     15          6           0        2.957570   -2.809216    0.711355
     16          6           0        3.063161   -1.596884    1.351595
     17          6           0        2.172311   -0.566018    1.069685
     18          1           0        0.404668    4.156511    1.675244
     19          1           0       -0.010236    4.992570    0.143809
     20          1           0        2.156712    2.694321   -1.971971
     21          1           0       -1.365805    1.222156   -2.025413
     22          1           0       -3.806399    0.758476   -2.217515
     23          1           0       -4.956527   -0.616774   -0.598758
     24          1           0       -3.692109   -1.588525    1.291629
     25          1           0       -1.242201   -1.134689    1.501629
     26          1           0        0.252470   -2.036058   -1.216488
     27          1           0        1.834199   -3.889648   -0.726531
     28          1           0        3.662191   -3.595875    0.947383
     29          1           0        3.844079   -1.408261    2.095404
     30          1           0        2.245873    0.399700    1.570799
 ---------------------------------------------------------------------
                    Distance matrix (angstroms):
                    1          2          3          4          5
     1  N    0.000000
     2  C    1.410258   0.000000
     3  C    2.677977   1.393318   0.000000
     4  C    2.684296   1.351782   1.407910   0.000000
     5  N    3.899420   2.714739   2.703402   1.429884   0.000000
     6  C    4.438361   3.483648   3.703858   2.434132   1.414931
     7  C    4.601775   3.718975   3.846099   2.903955   2.406982
     8  C    5.603117   4.931557   5.184366   4.251199   3.690792
     9  C    6.342899   5.763175   6.162268   5.031939   4.219228
    10  C    6.216834   5.604853   6.065349   4.765961   3.731430
    11  C    5.323630   4.564572   4.961488   3.603154   2.449310
    12  C    4.963585   3.760837   3.506123   2.501711   1.425038
    13  C    6.233321   4.970930   4.524739   3.640178   2.432999
    14  C    7.340043   6.094533   5.582404   4.815630   3.705696
    15  C    7.445017   6.294274   5.847082   5.158395   4.243871
    16  C    6.408223   5.375008   5.083049   4.409181   3.732666
    17  C    5.086761   4.038532   3.874652   3.061656   2.451492
    18  H    1.032587   2.124814   3.431683   3.205681   4.230660
    19  H    1.032685   2.117573   3.152074   3.409124   4.668396
    20  H    3.509130   2.396104   1.083095   2.417236   3.542013
    21  H    4.317202   3.354817   3.240340   2.673875   2.629249
    22  H    6.073794   5.476309   5.664599   4.935871   4.569960
    23  H    7.234019   6.747362   7.174705   6.084178   5.307465
    24  H    7.045997   6.515770   7.039453   5.697837   4.612064
    25  H    5.588194   4.852992   5.273686   3.881705   2.662490
    26  H    6.468088   5.194301   4.724432   3.846151   2.607209
    27  H    8.300261   7.024062   6.443069   5.711299   4.556128
    28  H    8.443313   7.314386   6.836444   6.211765   5.325734
    29  H    6.738466   5.845857   5.629943   5.067292   4.585558
    30  H    4.317004   3.458630   3.543347   2.802792   2.635974
                    6          7          8          9         10
     6  C    0.000000
     7  C    1.381148   0.000000
     8  C    2.404419   1.397712   0.000000
     9  C    2.804595   2.422661   1.379544   0.000000
    10  C    2.421330   2.767093   2.366822   1.372205   0.000000
    11  C    1.375926   2.369148   2.732266   2.398653   1.397776
    12  C    2.458831   3.591337   4.770448   5.094902   4.363326
    13  C    2.974050   3.935775   4.927454   5.159062   4.461260
    14  C    4.315010   5.314746   6.246214   6.355900   5.542674
    15  C    5.094540   6.230247   7.255350   7.341277   6.403352
    16  C    4.790926   6.000846   7.133793   7.280624   6.318278
    17  C    3.616262   4.812185   6.005638   6.256396   5.386496
    18  H    4.772494   5.150035   6.096198   6.647860   6.352747
    19  H    5.069668   4.973439   5.859269   6.704269   6.766907
    20  H    4.561179   4.578828   5.902566   6.972644   6.952455
    21  H    2.143695   1.083227   2.151861   3.396117   3.850073
    22  H    3.393628   2.165283   1.086434   2.116466   3.340566
    23  H    3.893150   3.399855   2.133361   1.088985   2.159236
    24  H    3.401984   3.848017   3.343694   2.116371   1.080927
    25  H    2.113098   3.341661   3.811744   3.375801   2.152615
    26  H    2.705538   3.379132   4.219699   4.499608   4.008117
    27  H    4.973224   5.841296   6.632648   6.686861   5.939420
    28  H    6.153858   7.285822   8.275472   8.306666   7.332969
    29  H    5.696552   6.927415   8.079037   8.206459   7.196707
    30  H    3.852582   5.004409   6.226200   6.521476   5.681500
                   11         12         13         14         15
    11  C    0.000000
    12  C    3.013134   0.000000
    13  C    3.318528   1.381682   0.000000
    14  C    4.455094   2.401002   1.388359   0.000000
    15  C    5.202938   2.818889   2.422020   1.376651   0.000000
    16  C    4.993210   2.418319   2.751020   2.350616   1.375066
    17  C    4.000015   1.374991   2.358151   2.716875   2.403533
    18  H    5.442719   5.156781   6.492407   7.513599   7.481159
    19  H    6.009149   5.822853   7.030802   8.189331   8.366472
    20  H    5.863318   4.134965   4.977327   5.919672   6.174992
    21  H    3.358557   3.854054   4.255428   5.628495   6.514095
    22  H    3.818604   5.695097   5.812037   7.132155   8.188894
    23  H    3.402187   6.163027   6.149772   7.294959   8.316016
    24  H    2.165627   5.061088   5.079601   5.989080   6.785649
    25  H    1.079480   2.788411   3.142204   4.046796   4.589842
    26  H    3.095111   2.108815   1.081653   2.171449   3.410560
    27  H    5.029947   3.365212   2.124667   1.076358   2.120569
    28  H    6.185534   3.900701   3.417531   2.168915   1.082142
    29  H    5.865198   3.387023   3.844647   3.362312   2.159668
    30  H    4.295908   2.104933   3.333778   3.807174   3.397396
                   16         17         18         19         20
    16  C    0.000000
    17  C    1.391320   0.000000
    18  H    6.346171   5.078734   0.000000
    19  H    7.370578   6.043067   1.793442   0.000000
    20  H    5.502925   4.458893   4.302306   3.801860   0.000000
    21  H    6.242348   5.029459   5.043796   4.556217   3.818148
    22  H    8.091793   6.950176   6.665831   6.157455   6.274271
    23  H    8.311431   7.321653   7.529791   7.515447   7.965377
    24  H    6.755541   5.957030   7.066554   7.627876   7.950004
    25  H    4.332699   3.488389   5.544287   6.395679   6.187069
    26  H    3.832481   3.327671   6.836168   7.163870   5.154937
    27  H    3.329523   3.793050   8.517791   9.113354   6.708486
    28  H    2.125603   3.378570   8.440422   9.375171   7.096172
    29  H    1.094835   2.134545   6.555362   7.722377   6.018465
    30  H    2.168492   1.090476   4.185042   5.312324   4.221902
                   21         22         23         24         25
    21  H    0.000000
    22  H    2.491666   0.000000
    23  H    4.279053   2.415467   0.000000
    24  H    4.930962   4.223218   2.473179   0.000000
    25  H    4.243822   4.898083   4.298381   2.500423   0.000000
    26  H    3.726813   5.028508   5.434115   4.695811   3.230274
    27  H    6.169089   7.459520   7.539363   6.317295   4.692412
    28  H    7.571769   9.206345   9.249210   7.631100   5.515223
    29  H    7.144447   9.045763   9.237728   7.581074   5.128124
    30  H    5.162692   7.149129   7.590439   6.268222   3.811272
                   26         27         28         29         30
    26  H    0.000000
    27  H    2.485502   0.000000
    28  H    4.329153   2.495966   0.000000
    29  H    4.925689   4.261481   2.477234   0.000000
    30  H    4.204229   4.883207   4.284766   2.469453   0.000000
 Stoichiometry    C15H13N2(2+,2)
 Framework group  C1[X(C15H13N2)]
 Deg. of freedom    84
 Full point group                 C1      NOp   1
 Largest Abelian subgroup         C1      NOp   1
 Largest concise Abelian subgroup C1      NOp   1
                         Standard orientation:                         
 ---------------------------------------------------------------------
 Center     Atomic      Atomic             Coordinates (Angstroms)
 Number     Number       Type             X           Y           Z
 ---------------------------------------------------------------------
      1          7           0       -1.701913    3.713558    0.897606
      2          6           0       -0.944687    2.899855    0.029663
      3          6           0       -0.254000    2.840005   -1.178933
      4          6           0       -0.357327    1.732423   -0.315917
      5          7           0        0.004562    0.361546   -0.130713
      6          6           0       -1.041632   -0.582303   -0.001645
      7          6           0       -2.110996   -0.514170   -0.873073
      8          6           0       -3.155989   -1.436013   -0.764471
      9          6           0       -3.148366   -2.422652    0.199701
     10          6           0       -2.085313   -2.489189    1.064824
     11          6           0       -1.039194   -1.568316    0.958014
     12          6           0        1.361889   -0.068789   -0.074069
     13          6           0        1.765258   -1.188990   -0.775130
     14          6           0        3.087694   -1.608085   -0.719803
     15          6           0        4.040057   -0.943335    0.019306
     16          6           0        3.635003    0.171023    0.715684
     17          6           0        2.311405    0.596788    0.664869
     18          1           0       -1.451803    3.776814    1.897446
     19          1           0       -2.505699    4.242897    0.523218
     20          1           0        0.092486    3.310365   -2.090966
     21          1           0       -2.145042    0.249508   -1.640548
     22          1           0       -4.004698   -1.396852   -1.441597
     23          1           0       -3.982465   -3.120964    0.249978
     24          1           0       -2.077525   -3.261567    1.820981
     25          1           0       -0.201750   -1.618445    1.637316
     26          1           0        1.013425   -1.707865   -1.354343
     27          1           0        3.373304   -2.484124   -1.276157
     28          1           0        5.074873   -1.255038    0.074346
     29          1           0        4.335335    0.751186    1.325282
     30          1           0        1.978214    1.478849    1.212673
 ---------------------------------------------------------------------
 Rotational constants (GHZ):           0.5601950           0.4046814           0.2648941
 Leave Link  202 at Wed May 11 06:03:51 2022, MaxMem=  6442450944 cpu:               0.1 elap:               0.0
 (Enter /mnt/gpfs3_amd/share/apps/amd/gaussian/g16-A.03/g16/l301.exe)
 Standard basis: def2SVP (5D, 7F)
 Ernie: Thresh=  0.10000D-02 Tol=  0.10000D-05 Strict=F.
 There are   320 symmetry adapted cartesian basis functions of A   symmetry.
 There are   303 symmetry adapted basis functions of A   symmetry.
   303 basis functions,   516 primitive gaussians,   320 cartesian basis functions
    58 alpha electrons       57 beta electrons
       nuclear repulsion energy      1076.6785854109 Hartrees.
 IExCor=33909 DFT=T Ex+Corr=LC-wHPBE ExCW=0 ScaHFX=  1.000000
 ScaDFX=  1.000000  1.000000  1.000000  1.000000 ScalE2=  1.000000  1.000000
 IRadAn=      5 IRanWt=     -1 IRanGd=            0 ICorTp=0 IEmpDi=  4
 HFx  wShort=  0.000000 wLong=  0.225700 cFull=  0.000000 cShort=  0.000000 cLong=  1.000000
 DFx  wShort=  0.000000 wLong=  0.225700 cFull=  0.000000 cShort=  1.000000 cLong=  0.000000
 NAtoms=   30 NActive=   30 NUniq=   30 SFac= 1.00D+00 NAtFMM=   60 NAOKFM=F Big=F
 Integral buffers will be    131072 words long.
 Raffenetti 2 integral format.
 Two-electron integral symmetry is turned on.
 Leave Link  301 at Wed May 11 06:03:51 2022, MaxMem=  6442450944 cpu:               0.5 elap:               0.0
 (Enter /mnt/gpfs3_amd/share/apps/amd/gaussian/g16-A.03/g16/l302.exe)
 NPDir=0 NMtPBC=     1 NCelOv=     1 NCel=       1 NClECP=     1 NCelD=      1
         NCelK=      1 NCelE2=     1 NClLst=     1 CellRange=     0.0.
 One-electron integrals computed using PRISM.
 One-electron integral symmetry used in STVInt
   1 Symmetry operations used in ECPInt.
 ECPInt:  NShTT=   10011 NPrTT=   36575 LenC2=    9378 LenP2D=   24388.
 LDataN:  DoStor=T MaxTD1= 4 Len=   56
 NBasis=   303 RedAO= T EigKep=  2.29D-04  NBF=   303
 NBsUse=   303 1.00D-06 EigRej= -1.00D+00 NBFU=   303
 Precomputing XC quadrature grid using
 IXCGrd= 4 IRadAn=           5 IRanWt=          -1 IRanGd=           0 AccXCQ= 0.00D+00.
 Generated NRdTot=       0 NPtTot=           0 NUsed=           0 NTot=          32
 NSgBfM=   319   319   319   319   319 MxSgAt=    30 MxSgA2=    30.
 Leave Link  302 at Wed May 11 06:03:51 2022, MaxMem=  6442450944 cpu:               6.8 elap:               0.4
 (Enter /mnt/gpfs3_amd/share/apps/amd/gaussian/g16-A.03/g16/l303.exe)
 DipDrv:  MaxL=1.
 Leave Link  303 at Wed May 11 06:03:52 2022, MaxMem=  6442450944 cpu:               1.6 elap:               0.1
 (Enter /mnt/gpfs3_amd/share/apps/amd/gaussian/g16-A.03/g16/l401.exe)
 ExpMin= 1.22D-01 ExpMax= 1.71D+03 ExpMxC= 2.58D+02 IAcc=3 IRadAn=         5 AccDes= 0.00D+00
 Harris functional with IExCor=33909 and IRadAn=       5 diagonalized for initial guess.
 HarFok:  IExCor=33909 AccDes= 0.00D+00 IRadAn=         5 IDoV= 1 UseB2=F ITyADJ=14
 ICtDFT=  3500011 ScaDFX=  1.000000  1.000000  1.000000  1.000000
 FoFCou: FMM=F IPFlag=           0 FMFlag=      100000 FMFlg1=           0
         NFxFlg=           0 DoJE=T BraDBF=F KetDBF=T FulRan=T
         wScrn=  0.000000 ICntrl=       500 IOpCl=  0 I1Cent=   200000004 NGrid=           0
         NMat0=    1 NMatS0=      1 NMatT0=    0 NMatD0=    1 NMtDS0=    0 NMtDT0=    0
 Petite list used in FoFCou.
 Harris En= -673.483613850567    
 JPrj=0 DoOrth=F DoCkMO=F.
 Initial guess <Sx>= 0.0000 <Sy>= 0.0000 <Sz>= 0.5000 <S**2>= 0.7500 S= 0.5000
 Leave Link  401 at Wed May 11 06:03:54 2022, MaxMem=  6442450944 cpu:              45.3 elap:               2.9
 (Enter /mnt/gpfs3_amd/share/apps/amd/gaussian/g16-A.03/g16/l502.exe)
 Integral symmetry usage will be decided dynamically.
 UHF open shell SCF:
 Using DIIS extrapolation, IDIIS=  1040.
 NGot=  6442450944 LenX=  6442237618 LenY=  6442134777
 Requested convergence on RMS density matrix=1.00D-08 within 512 cycles.
 Requested convergence on MAX density matrix=1.00D-06.
 Requested convergence on             energy=1.00D-06.
 No special actions if energy rises.
 Fock matrices will be formed incrementally for  20 cycles.
 Integral accuracy reduced to 1.0D-05 until final iterations.

 Cycle   1  Pass 0  IDiag  1:
 FoFJK:  IHMeth= 1 ICntrl=       0 DoSepK=T KAlg= 0 I1Cent=           0 FoldK=F
 IRaf=         1 NMat=       1 IRICut=       1 DoRegI=T DoRafI=F ISym2E= 0 IDoP0=0 IntGTp=1.
 FoFCou: FMM=F IPFlag=           0 FMFlag=      100000 FMFlg1=           0
         NFxFlg=           0 DoJE=T BraDBF=F KetDBF=F FulRan=T
         wScrn=  0.000000 ICntrl=       500 IOpCl=  0 I1Cent=           0 NGrid=           0
         NMat0=    1 NMatS0=      1 NMatT0=    0 NMatD0=    1 NMtDS0=    0 NMtDT0=    0
 Symmetry not used in FoFCou.
 E= -686.732708100803    
 DIIS: error= 2.98D-02 at cycle   1 NSaved=   1.
 NSaved= 1 IEnMin= 1 EnMin= -686.732708100803     IErMin= 1 ErrMin= 2.98D-02
 ErrMax= 2.98D-02  0.00D+00 EMaxC= 1.00D-01 BMatC= 1.12D+00 BMatP= 1.12D+00
 IDIUse=3 WtCom= 7.02D-01 WtEn= 2.98D-01
 Coeff-Com:  0.100D+01
 Coeff-En:   0.100D+01
 Coeff:      0.100D+01
 Gap=     0.535 Goal=   None    Shift=    0.000
 Gap=     0.102 Goal=   None    Shift=    0.000
 GapD=    0.102 DampG=1.000 DampE=0.500 DampFc=0.5000 IDamp=-1.
 Damping current iteration by 5.00D-01
 RMSDP=5.78D-03 MaxDP=2.89D-01              OVMax= 4.99D-01

 Cycle   2  Pass 0  IDiag  1:
 RMSU=  2.82D-03    CP:  9.69D-01
 E= -686.803813992227     Delta-E=       -0.071105891424 Rises=F Damp=T
 DIIS: error= 1.25D-02 at cycle   2 NSaved=   2.
 NSaved= 2 IEnMin= 2 EnMin= -686.803813992227     IErMin= 2 ErrMin= 1.25D-02
 ErrMax= 1.25D-02  0.00D+00 EMaxC= 1.00D-01 BMatC= 2.16D-01 BMatP= 1.12D+00
 IDIUse=3 WtCom= 8.75D-01 WtEn= 1.25D-01
 Coeff-Com:  0.256D+00 0.744D+00
 Coeff-En:   0.381D+00 0.619D+00
 Coeff:      0.271D+00 0.729D+00
 Gap=     0.252 Goal=   None    Shift=    0.000
 Gap=     0.132 Goal=   None    Shift=    0.000
 RMSDP=1.64D-03 MaxDP=6.23D-02 DE=-7.11D-02 OVMax= 3.95D-01

 Cycle   3  Pass 0  IDiag  1:
 RMSU=  1.58D-03    CP:  9.49D-01  9.63D-01
 E= -687.043433889367     Delta-E=       -0.239619897140 Rises=F Damp=F
 DIIS: error= 3.54D-03 at cycle   3 NSaved=   3.
 NSaved= 3 IEnMin= 3 EnMin= -687.043433889367     IErMin= 3 ErrMin= 3.54D-03
 ErrMax= 3.54D-03  0.00D+00 EMaxC= 1.00D-01 BMatC= 3.68D-02 BMatP= 2.16D-01
 IDIUse=3 WtCom= 9.65D-01 WtEn= 3.54D-02
 Coeff-Com:  0.700D-01 0.280D+00 0.650D+00
 Coeff-En:   0.000D+00 0.000D+00 0.100D+01
 Coeff:      0.675D-01 0.270D+00 0.662D+00
 Gap=     0.269 Goal=   None    Shift=    0.000
 Gap=     0.167 Goal=   None    Shift=    0.000
 RMSDP=4.64D-04 MaxDP=1.81D-02 DE=-2.40D-01 OVMax= 4.09D-02

 Cycle   4  Pass 0  IDiag  1:
 RMSU=  4.29D-04    CP:  9.51D-01  9.82D-01  8.99D-01
 E= -687.053204961143     Delta-E=       -0.009771071776 Rises=F Damp=F
 DIIS: error= 1.84D-03 at cycle   4 NSaved=   4.
 NSaved= 4 IEnMin= 4 EnMin= -687.053204961143     IErMin= 4 ErrMin= 1.84D-03
 ErrMax= 1.84D-03  0.00D+00 EMaxC= 1.00D-01 BMatC= 5.57D-03 BMatP= 3.68D-02
 IDIUse=3 WtCom= 9.82D-01 WtEn= 1.84D-02
 Coeff-Com:  0.103D-01 0.120D-01 0.261D+00 0.717D+00
 Coeff-En:   0.000D+00 0.000D+00 0.000D+00 0.100D+01
 Coeff:      0.101D-01 0.118D-01 0.256D+00 0.722D+00
 Gap=     0.266 Goal=   None    Shift=    0.000
 Gap=     0.176 Goal=   None    Shift=    0.000
 RMSDP=2.01D-04 MaxDP=5.38D-03 DE=-9.77D-03 OVMax= 2.84D-02

 Cycle   5  Pass 0  IDiag  1:
 RMSU=  1.50D-04    CP:  9.50D-01  9.66D-01  9.69D-01  8.76D-01
 E= -687.055126280645     Delta-E=       -0.001921319502 Rises=F Damp=F
 DIIS: error= 9.16D-04 at cycle   5 NSaved=   5.
 NSaved= 5 IEnMin= 5 EnMin= -687.055126280645     IErMin= 5 ErrMin= 9.16D-04
 ErrMax= 9.16D-04  0.00D+00 EMaxC= 1.00D-01 BMatC= 7.98D-04 BMatP= 5.57D-03
 IDIUse=3 WtCom= 9.91D-01 WtEn= 9.16D-03
 Coeff-Com:  0.417D-03-0.329D-01 0.316D-01 0.291D+00 0.710D+00
 Coeff-En:   0.000D+00 0.000D+00 0.000D+00 0.000D+00 0.100D+01
 Coeff:      0.413D-03-0.326D-01 0.313D-01 0.288D+00 0.713D+00
 Gap=     0.269 Goal=   None    Shift=    0.000
 Gap=     0.179 Goal=   None    Shift=    0.000
 RMSDP=8.01D-05 MaxDP=2.50D-03 DE=-1.92D-03 OVMax= 1.08D-02

 Cycle   6  Pass 0  IDiag  1:
 RMSU=  6.44D-05    CP:  9.49D-01  9.61D-01  9.81D-01  9.59D-01  1.13D+00
 E= -687.055510647357     Delta-E=       -0.000384366713 Rises=F Damp=F
 DIIS: error= 5.16D-04 at cycle   6 NSaved=   6.
 NSaved= 6 IEnMin= 6 EnMin= -687.055510647357     IErMin= 6 ErrMin= 5.16D-04
 ErrMax= 5.16D-04  0.00D+00 EMaxC= 1.00D-01 BMatC= 1.59D-04 BMatP= 7.98D-04
 IDIUse=3 WtCom= 9.95D-01 WtEn= 5.16D-03
 Coeff-Com:  0.806D-03-0.196D-01-0.393D-01-0.456D-01 0.212D+00 0.891D+00
 Coeff-En:   0.000D+00 0.000D+00 0.000D+00 0.000D+00 0.000D+00 0.100D+01
 Coeff:      0.802D-03-0.195D-01-0.391D-01-0.454D-01 0.211D+00 0.892D+00
 Gap=     0.271 Goal=   None    Shift=    0.000
 Gap=     0.179 Goal=   None    Shift=    0.000
 RMSDP=5.76D-05 MaxDP=3.22D-03 DE=-3.84D-04 OVMax= 1.11D-02

 Cycle   7  Pass 0  IDiag  1:
 RMSU=  3.21D-05    CP:  9.49D-01  9.55D-01  9.88D-01  9.95D-01  1.36D+00
                    CP:  1.33D+00
 E= -687.055673326094     Delta-E=       -0.000162678736 Rises=F Damp=F
 DIIS: error= 3.30D-04 at cycle   7 NSaved=   7.
 NSaved= 7 IEnMin= 7 EnMin= -687.055673326094     IErMin= 7 ErrMin= 3.30D-04
 ErrMax= 3.30D-04  0.00D+00 EMaxC= 1.00D-01 BMatC= 4.59D-05 BMatP= 1.59D-04
 IDIUse=3 WtCom= 9.97D-01 WtEn= 3.30D-03
 Coeff-Com:  0.221D-02 0.678D-03-0.833D-02-0.603D-01-0.140D+00 0.185D+00
 Coeff-Com:  0.102D+01
 Coeff-En:   0.000D+00 0.000D+00 0.000D+00 0.000D+00 0.000D+00 0.000D+00
 Coeff-En:   0.100D+01
 Coeff:      0.220D-02 0.676D-03-0.830D-02-0.601D-01-0.140D+00 0.185D+00
 Coeff:      0.102D+01
 Gap=     0.271 Goal=   None    Shift=    0.000
 Gap=     0.179 Goal=   None    Shift=    0.000
 RMSDP=3.96D-05 MaxDP=2.47D-03 DE=-1.63D-04 OVMax= 8.18D-03

 Cycle   8  Pass 0  IDiag  1:
 RMSU=  1.72D-05    CP:  9.49D-01  9.52D-01  9.88D-01  1.01D+00  1.47D+00
                    CP:  1.69D+00  1.54D+00
 E= -687.055740519628     Delta-E=       -0.000067193535 Rises=F Damp=F
 DIIS: error= 1.79D-04 at cycle   8 NSaved=   8.
 NSaved= 8 IEnMin= 8 EnMin= -687.055740519628     IErMin= 8 ErrMin= 1.79D-04
 ErrMax= 1.79D-04  0.00D+00 EMaxC= 1.00D-01 BMatC= 1.50D-05 BMatP= 4.59D-05
 IDIUse=3 WtCom= 9.98D-01 WtEn= 1.79D-03
 Coeff-Com:  0.116D-02 0.343D-02 0.779D-02-0.577D-02-0.106D+00-0.150D+00
 Coeff-Com:  0.279D+00 0.970D+00
 Coeff-En:   0.000D+00 0.000D+00 0.000D+00 0.000D+00 0.000D+00 0.000D+00
 Coeff-En:   0.000D+00 0.100D+01
 Coeff:      0.116D-02 0.342D-02 0.778D-02-0.576D-02-0.106D+00-0.150D+00
 Coeff:      0.279D+00 0.970D+00
 Gap=     0.272 Goal=   None    Shift=    0.000
 Gap=     0.179 Goal=   None    Shift=    0.000
 RMSDP=2.73D-05 MaxDP=1.48D-03 DE=-6.72D-05 OVMax= 7.15D-03

 Cycle   9  Pass 0  IDiag  1:
 RMSU=  1.02D-05    CP:  9.49D-01  9.50D-01  9.89D-01  1.02D+00  1.54D+00
                    CP:  1.90D+00  2.01D+00  1.59D+00
 E= -687.055770730501     Delta-E=       -0.000030210872 Rises=F Damp=F
 DIIS: error= 1.46D-04 at cycle   9 NSaved=   9.
 NSaved= 9 IEnMin= 9 EnMin= -687.055770730501     IErMin= 9 ErrMin= 1.46D-04
 ErrMax= 1.46D-04  0.00D+00 EMaxC= 1.00D-01 BMatC= 5.47D-06 BMatP= 1.50D-05
 IDIUse=3 WtCom= 9.99D-01 WtEn= 1.46D-03
 Coeff-Com: -0.191D-03 0.147D-03 0.770D-02 0.296D-01 0.366D-01-0.109D+00
 Coeff-Com: -0.432D+00 0.231D+00 0.124D+01
 Coeff-En:   0.000D+00 0.000D+00 0.000D+00 0.000D+00 0.000D+00 0.000D+00
 Coeff-En:   0.000D+00 0.000D+00 0.100D+01
 Coeff:     -0.191D-03 0.147D-03 0.769D-02 0.296D-01 0.366D-01-0.109D+00
 Coeff:     -0.432D+00 0.230D+00 0.124D+01
 Gap=     0.272 Goal=   None    Shift=    0.000
 Gap=     0.179 Goal=   None    Shift=    0.000
 RMSDP=2.68D-05 MaxDP=1.43D-03 DE=-3.02D-05 OVMax= 8.26D-03

 Cycle  10  Pass 0  IDiag  1:
 RMSU=  6.90D-06    CP:  9.50D-01  9.49D-01  9.88D-01  1.03D+00  1.58D+00
                    CP:  2.06D+00  2.44D+00  2.44D+00  1.89D+00
 E= -687.055790341264     Delta-E=       -0.000019610763 Rises=F Damp=F
 DIIS: error= 1.03D-04 at cycle  10 NSaved=  10.
 NSaved=10 IEnMin=10 EnMin= -687.055790341264     IErMin=10 ErrMin= 1.03D-04
 ErrMax= 1.03D-04  0.00D+00 EMaxC= 1.00D-01 BMatC= 1.71D-06 BMatP= 5.47D-06
 IDIUse=3 WtCom= 9.99D-01 WtEn= 1.03D-03
 Coeff-Com: -0.245D-03-0.108D-02 0.428D-03 0.105D-01 0.388D-01 0.748D-02
 Coeff-Com: -0.212D+00-0.197D+00 0.403D+00 0.950D+00
 Coeff-En:   0.000D+00 0.000D+00 0.000D+00 0.000D+00 0.000D+00 0.000D+00
 Coeff-En:   0.000D+00 0.000D+00 0.000D+00 0.100D+01
 Coeff:     -0.245D-03-0.108D-02 0.428D-03 0.105D-01 0.388D-01 0.747D-02
 Coeff:     -0.212D+00-0.196D+00 0.403D+00 0.950D+00
 Gap=     0.272 Goal=   None    Shift=    0.000
 Gap=     0.179 Goal=   None    Shift=    0.000
 RMSDP=1.39D-05 MaxDP=4.31D-04 DE=-1.96D-05 OVMax= 4.98D-03

 Cycle  11  Pass 0  IDiag  1:
 RMSU=  3.66D-06    CP:  9.50D-01  9.49D-01  9.88D-01  1.03D+00  1.60D+00
                    CP:  2.13D+00  2.65D+00  2.86D+00  2.51D+00  1.60D+00
 E= -687.055796641831     Delta-E=       -0.000006300567 Rises=F Damp=F
 DIIS: error= 7.54D-05 at cycle  11 NSaved=  11.
 NSaved=11 IEnMin=11 EnMin= -687.055796641831     IErMin=11 ErrMin= 7.54D-05
 ErrMax= 7.54D-05  0.00D+00 EMaxC= 1.00D-01 BMatC= 6.89D-07 BMatP= 1.71D-06
 IDIUse=1 WtCom= 1.00D+00 WtEn= 0.00D+00
 Coeff-Com:  0.144D-03-0.347D-03-0.226D-02-0.860D-02-0.862D-02 0.379D-01
 Coeff-Com:  0.128D+00-0.100D+00-0.387D+00 0.133D+00 0.121D+01
 Coeff:      0.144D-03-0.347D-03-0.226D-02-0.860D-02-0.862D-02 0.379D-01
 Coeff:      0.128D+00-0.100D+00-0.387D+00 0.133D+00 0.121D+01
 Gap=     0.272 Goal=   None    Shift=    0.000
 Gap=     0.179 Goal=   None    Shift=    0.000
 RMSDP=1.06D-05 MaxDP=3.09D-04 DE=-6.30D-06 OVMax= 4.09D-03

 Cycle  12  Pass 0  IDiag  1:
 RMSU=  3.61D-06    CP:  9.50D-01  9.49D-01  9.88D-01  1.03D+00  1.61D+00
                    CP:  2.16D+00  2.76D+00  3.00D+00  2.98D+00  2.30D+00
                    CP:  1.93D+00
 E= -687.055799247633     Delta-E=       -0.000002605802 Rises=F Damp=F
 DIIS: error= 5.30D-05 at cycle  12 NSaved=  12.
 NSaved=12 IEnMin=12 EnMin= -687.055799247633     IErMin=12 ErrMin= 5.30D-05
 ErrMax= 5.30D-05  0.00D+00 EMaxC= 1.00D-01 BMatC= 3.26D-07 BMatP= 6.89D-07
 IDIUse=1 WtCom= 1.00D+00 WtEn= 0.00D+00
 Coeff-Com:  0.151D-03 0.168D-03-0.101D-02-0.672D-02-0.180D-01 0.115D-01
 Coeff-Com:  0.119D+00 0.284D-01-0.285D+00-0.278D+00 0.339D+00 0.109D+01
 Coeff:      0.151D-03 0.168D-03-0.101D-02-0.672D-02-0.180D-01 0.115D-01
 Coeff:      0.119D+00 0.284D-01-0.285D+00-0.278D+00 0.339D+00 0.109D+01
 Gap=     0.272 Goal=   None    Shift=    0.000
 Gap=     0.179 Goal=   None    Shift=    0.000
 RMSDP=8.52D-06 MaxDP=2.55D-04 DE=-2.61D-06 OVMax= 3.39D-03

 Initial convergence to 1.0D-05 achieved.  Increase integral accuracy.
 Cycle  13  Pass 1  IDiag  1:
 E= -687.055823371399     Delta-E=       -0.000024123766 Rises=F Damp=F
 DIIS: error= 1.38D-04 at cycle   1 NSaved=   1.
 NSaved= 1 IEnMin= 1 EnMin= -687.055823371399     IErMin= 1 ErrMin= 1.38D-04
 ErrMax= 1.38D-04  0.00D+00 EMaxC= 1.00D-01 BMatC= 6.16D-06 BMatP= 6.16D-06
 IDIUse=3 WtCom= 9.99D-01 WtEn= 1.38D-03
 Coeff-Com:  0.100D+01
 Coeff-En:   0.100D+01
 Coeff:      0.100D+01
 Gap=     0.272 Goal=   None    Shift=    0.000
 Gap=     0.179 Goal=   None    Shift=    0.000
 RMSDP=8.52D-06 MaxDP=2.55D-04 DE=-2.41D-05 OVMax= 9.28D-04

 Cycle  14  Pass 1  IDiag  1:
 RMSU=  8.13D-05    CP:  1.00D+00
 E= -687.055825023740     Delta-E=       -0.000001652341 Rises=F Damp=F
 DIIS: error= 2.95D-05 at cycle   2 NSaved=   2.
 NSaved= 2 IEnMin= 2 EnMin= -687.055825023740     IErMin= 2 ErrMin= 2.95D-05
 ErrMax= 2.95D-05  0.00D+00 EMaxC= 1.00D-01 BMatC= 1.47D-07 BMatP= 6.16D-06
 IDIUse=1 WtCom= 1.00D+00 WtEn= 0.00D+00
 Coeff-Com: -0.274D-01 0.103D+01
 Coeff:     -0.274D-01 0.103D+01
 Gap=     0.272 Goal=   None    Shift=    0.000
 Gap=     0.179 Goal=   None    Shift=    0.000
 RMSDP=5.92D-06 MaxDP=1.78D-04 DE=-1.65D-06 OVMax= 8.23D-04

 Cycle  15  Pass 1  IDiag  1:
 RMSU=  2.51D-06    CP:  1.00D+00  1.07D+00
 E= -687.055825347368     Delta-E=       -0.000000323628 Rises=F Damp=F
 DIIS: error= 2.59D-05 at cycle   3 NSaved=   3.
 NSaved= 3 IEnMin= 3 EnMin= -687.055825347368     IErMin= 3 ErrMin= 2.59D-05
 ErrMax= 2.59D-05  0.00D+00 EMaxC= 1.00D-01 BMatC= 1.36D-07 BMatP= 1.47D-07
 IDIUse=1 WtCom= 1.00D+00 WtEn= 0.00D+00
 Coeff-Com: -0.247D-01 0.504D+00 0.521D+00
 Coeff:     -0.247D-01 0.504D+00 0.521D+00
 Gap=     0.272 Goal=   None    Shift=    0.000
 Gap=     0.179 Goal=   None    Shift=    0.000
 RMSDP=1.05D-06 MaxDP=2.99D-05 DE=-3.24D-07 OVMax= 3.61D-04

 Cycle  16  Pass 1  IDiag  1:
 RMSU=  8.03D-07    CP:  1.00D+00  1.07D+00  1.26D+00
 E= -687.055825486345     Delta-E=       -0.000000138977 Rises=F Damp=F
 DIIS: error= 2.34D-05 at cycle   4 NSaved=   4.
 NSaved= 4 IEnMin= 4 EnMin= -687.055825486345     IErMin= 4 ErrMin= 2.34D-05
 ErrMax= 2.34D-05  0.00D+00 EMaxC= 1.00D-01 BMatC= 5.68D-08 BMatP= 1.36D-07
 IDIUse=1 WtCom= 1.00D+00 WtEn= 0.00D+00
 Coeff-Com:  0.350D-01-0.993D+00-0.453D+00 0.241D+01
 Coeff:      0.350D-01-0.993D+00-0.453D+00 0.241D+01
 Gap=     0.272 Goal=   None    Shift=    0.000
 Gap=     0.179 Goal=   None    Shift=    0.000
 RMSDP=4.39D-06 MaxDP=1.28D-04 DE=-1.39D-07 OVMax= 1.70D-03

 Cycle  17  Pass 1  IDiag  1:
 RMSU=  1.55D-06    CP:  1.00D+00  1.07D+00  2.64D+00  3.00D+00
 E= -687.055825931744     Delta-E=       -0.000000445399 Rises=F Damp=F
 DIIS: error= 1.50D-05 at cycle   5 NSaved=   5.
 NSaved= 5 IEnMin= 5 EnMin= -687.055825931744     IErMin= 5 ErrMin= 1.50D-05
 ErrMax= 1.50D-05  0.00D+00 EMaxC= 1.00D-01 BMatC= 2.75D-08 BMatP= 5.68D-08
 IDIUse=1 WtCom= 1.00D+00 WtEn= 0.00D+00
 Coeff-Com:  0.351D-01-0.879D+00-0.569D+00 0.138D+01 0.104D+01
 Coeff:      0.351D-01-0.879D+00-0.569D+00 0.138D+01 0.104D+01
 Gap=     0.272 Goal=   None    Shift=    0.000
 Gap=     0.179 Goal=   None    Shift=    0.000
 RMSDP=3.69D-06 MaxDP=1.11D-04 DE=-4.45D-07 OVMax= 1.45D-03

 Cycle  18  Pass 1  IDiag  1:
 RMSU=  2.39D-06    CP:  1.00D+00  1.07D+00  3.00D+00  3.00D+00  2.23D+00
 E= -687.055826135057     Delta-E=       -0.000000203313 Rises=F Damp=F
 DIIS: error= 6.40D-06 at cycle   6 NSaved=   6.
 NSaved= 6 IEnMin= 6 EnMin= -687.055826135057     IErMin= 6 ErrMin= 6.40D-06
 ErrMax= 6.40D-06  0.00D+00 EMaxC= 1.00D-01 BMatC= 1.23D-08 BMatP= 2.75D-08
 IDIUse=1 WtCom= 1.00D+00 WtEn= 0.00D+00
 Coeff-Com:  0.144D-02 0.180D-01-0.484D-01-0.493D+00 0.628D+00 0.894D+00
 Coeff:      0.144D-02 0.180D-01-0.484D-01-0.493D+00 0.628D+00 0.894D+00
 Gap=     0.272 Goal=   None    Shift=    0.000
 Gap=     0.179 Goal=   None    Shift=    0.000
 RMSDP=2.08D-06 MaxDP=6.06D-05 DE=-2.03D-07 OVMax= 7.99D-04

 Cycle  19  Pass 1  IDiag  1:
 RMSU=  4.69D-07    CP:  1.00D+00  1.07D+00  3.00D+00  3.00D+00  3.00D+00
                    CP:  1.67D+00
 E= -687.055826183294     Delta-E=       -0.000000048237 Rises=F Damp=F
 DIIS: error= 2.63D-06 at cycle   7 NSaved=   7.
 NSaved= 7 IEnMin= 7 EnMin= -687.055826183294     IErMin= 7 ErrMin= 2.63D-06
 ErrMax= 2.63D-06  0.00D+00 EMaxC= 1.00D-01 BMatC= 2.28D-09 BMatP= 1.23D-08
 IDIUse=1 WtCom= 1.00D+00 WtEn= 0.00D+00
 Coeff-Com: -0.497D-02 0.149D+00 0.916D-01-0.489D+00 0.151D+00 0.352D+00
 Coeff-Com:  0.751D+00
 Coeff:     -0.497D-02 0.149D+00 0.916D-01-0.489D+00 0.151D+00 0.352D+00
 Coeff:      0.751D+00
 Gap=     0.272 Goal=   None    Shift=    0.000
 Gap=     0.179 Goal=   None    Shift=    0.000
 RMSDP=5.74D-07 MaxDP=1.89D-05 DE=-4.82D-08 OVMax= 2.19D-04

 Cycle  20  Pass 1  IDiag  1:
 RMSU=  3.59D-07    CP:  1.00D+00  1.07D+00  3.00D+00  3.00D+00  3.00D+00
                    CP:  1.84D+00  1.30D+00
 E= -687.055826189321     Delta-E=       -0.000000006028 Rises=F Damp=F
 DIIS: error= 1.43D-06 at cycle   8 NSaved=   8.
 NSaved= 8 IEnMin= 8 EnMin= -687.055826189321     IErMin= 8 ErrMin= 1.43D-06
 ErrMax= 1.43D-06  0.00D+00 EMaxC= 1.00D-01 BMatC= 1.27D-09 BMatP= 2.28D-09
 IDIUse=1 WtCom= 1.00D+00 WtEn= 0.00D+00
 Coeff-Com: -0.913D-03-0.123D-03 0.610D-01 0.142D+00-0.214D+00-0.484D+00
 Coeff-Com:  0.273D+00 0.122D+01
 Coeff:     -0.913D-03-0.123D-03 0.610D-01 0.142D+00-0.214D+00-0.484D+00
 Coeff:      0.273D+00 0.122D+01
 Gap=     0.272 Goal=   None    Shift=    0.000
 Gap=     0.179 Goal=   None    Shift=    0.000
 RMSDP=3.78D-07 MaxDP=2.08D-05 DE=-6.03D-09 OVMax= 1.18D-04

 Cycle  21  Pass 1  IDiag  1:
 RMSU=  1.56D-07    CP:  1.00D+00  1.07D+00  3.00D+00  3.00D+00  3.00D+00
                    CP:  1.93D+00  1.68D+00  1.59D+00
 E= -687.055826192170     Delta-E=       -0.000000002848 Rises=F Damp=F
 DIIS: error= 5.71D-07 at cycle   9 NSaved=   9.
 NSaved= 9 IEnMin= 9 EnMin= -687.055826192170     IErMin= 9 ErrMin= 5.71D-07
 ErrMax= 5.71D-07  0.00D+00 EMaxC= 1.00D-01 BMatC= 3.04D-10 BMatP= 1.27D-09
 IDIUse=1 WtCom= 1.00D+00 WtEn= 0.00D+00
 Coeff-Com:  0.186D-02-0.701D-01-0.201D-02 0.288D+00-0.168D+00-0.445D+00
 Coeff-Com: -0.126D+00 0.565D+00 0.956D+00
 Coeff:      0.186D-02-0.701D-01-0.201D-02 0.288D+00-0.168D+00-0.445D+00
 Coeff:     -0.126D+00 0.565D+00 0.956D+00
 Gap=     0.272 Goal=   None    Shift=    0.000
 Gap=     0.179 Goal=   None    Shift=    0.000
 RMSDP=2.34D-07 MaxDP=1.41D-05 DE=-2.85D-09 OVMax= 6.84D-05

 Cycle  22  Pass 1  IDiag  1:
 RMSU=  4.95D-08    CP:  1.00D+00  1.07D+00  3.00D+00  3.00D+00  3.00D+00
                    CP:  1.98D+00  1.91D+00  1.94D+00  1.66D+00
 E= -687.055826192900     Delta-E=       -0.000000000730 Rises=F Damp=F
 DIIS: error= 2.34D-07 at cycle  10 NSaved=  10.
 NSaved=10 IEnMin=10 EnMin= -687.055826192900     IErMin=10 ErrMin= 2.34D-07
 ErrMax= 2.34D-07  0.00D+00 EMaxC= 1.00D-01 BMatC= 2.94D-11 BMatP= 3.04D-10
 IDIUse=1 WtCom= 1.00D+00 WtEn= 0.00D+00
 Coeff-Com:  0.294D-03-0.641D-02-0.744D-02 0.271D-02 0.179D-01 0.220D-01
 Coeff-Com: -0.413D-01-0.115D+00 0.841D-01 0.104D+01
 Coeff:      0.294D-03-0.641D-02-0.744D-02 0.271D-02 0.179D-01 0.220D-01
 Coeff:     -0.413D-01-0.115D+00 0.841D-01 0.104D+01
 Gap=     0.272 Goal=   None    Shift=    0.000
 Gap=     0.179 Goal=   None    Shift=    0.000
 RMSDP=5.81D-08 MaxDP=2.65D-06 DE=-7.30D-10 OVMax= 1.77D-05

 Cycle  23  Pass 1  IDiag  1:
 RMSU=  2.47D-08    CP:  1.00D+00  1.07D+00  3.00D+00  3.00D+00  3.00D+00
                    CP:  1.99D+00  1.96D+00  2.01D+00  1.80D+00  1.28D+00
 E= -687.055826193010     Delta-E=       -0.000000000110 Rises=F Damp=F
 DIIS: error= 1.06D-07 at cycle  11 NSaved=  11.
 NSaved=11 IEnMin=11 EnMin= -687.055826193010     IErMin=11 ErrMin= 1.06D-07
 ErrMax= 1.06D-07  0.00D+00 EMaxC= 1.00D-01 BMatC= 1.22D-11 BMatP= 2.94D-11
 IDIUse=1 WtCom= 1.00D+00 WtEn= 0.00D+00
 Coeff-Com: -0.407D-03 0.171D-01-0.218D-02-0.776D-01 0.534D-01 0.129D+00
 Coeff-Com:  0.178D-01-0.190D+00-0.237D+00 0.373D+00 0.918D+00
 Coeff:     -0.407D-03 0.171D-01-0.218D-02-0.776D-01 0.534D-01 0.129D+00
 Coeff:      0.178D-01-0.190D+00-0.237D+00 0.373D+00 0.918D+00
 Gap=     0.272 Goal=   None    Shift=    0.000
 Gap=     0.179 Goal=   None    Shift=    0.000
 RMSDP=2.50D-08 MaxDP=7.53D-07 DE=-1.10D-10 OVMax= 5.99D-06

 Cycle  24  Pass 1  IDiag  1:
 RMSU=  1.09D-08    CP:  1.00D+00  1.07D+00  3.00D+00  3.00D+00  3.00D+00
                    CP:  1.99D+00  1.97D+00  2.03D+00  1.86D+00  1.50D+00
                    CP:  1.55D+00
 E= -687.055826193011     Delta-E=       -0.000000000001 Rises=F Damp=F
 DIIS: error= 9.82D-08 at cycle  12 NSaved=  12.
 NSaved=12 IEnMin=12 EnMin= -687.055826193011     IErMin=12 ErrMin= 9.82D-08
 ErrMax= 9.82D-08  0.00D+00 EMaxC= 1.00D-01 BMatC= 3.80D-12 BMatP= 1.22D-11
 IDIUse=1 WtCom= 1.00D+00 WtEn= 0.00D+00
 Coeff-Com: -0.171D-03 0.543D-02 0.929D-03-0.163D-01 0.607D-02 0.200D-01
 Coeff-Com:  0.107D-01-0.347D-02-0.720D-01-0.227D+00 0.184D+00 0.109D+01
 Coeff:     -0.171D-03 0.543D-02 0.929D-03-0.163D-01 0.607D-02 0.200D-01
 Coeff:      0.107D-01-0.347D-02-0.720D-01-0.227D+00 0.184D+00 0.109D+01
 Gap=     0.272 Goal=   None    Shift=    0.000
 Gap=     0.179 Goal=   None    Shift=    0.000
 RMSDP=1.97D-08 MaxDP=7.16D-07 DE=-1.14D-12 OVMax= 5.55D-06

 Cycle  25  Pass 1  IDiag  1:
 RMSU=  8.07D-09    CP:  1.00D+00  1.07D+00  3.00D+00  3.00D+00  3.00D+00
                    CP:  2.00D+00  1.97D+00  2.05D+00  1.89D+00  1.60D+00
                    CP:  1.98D+00  1.65D+00
 E= -687.055826193014     Delta-E=       -0.000000000003 Rises=F Damp=F
 DIIS: error= 6.42D-08 at cycle  13 NSaved=  13.
 NSaved=13 IEnMin=13 EnMin= -687.055826193014     IErMin=13 ErrMin= 6.42D-08
 ErrMax= 6.42D-08  0.00D+00 EMaxC= 1.00D-01 BMatC= 1.74D-12 BMatP= 3.80D-12
 IDIUse=1 WtCom= 1.00D+00 WtEn= 0.00D+00
 Coeff-Com:  0.113D-03-0.522D-02 0.681D-03 0.266D-01-0.196D-01-0.445D-01
 Coeff-Com: -0.630D-02 0.785D-01 0.764D-01-0.208D+00-0.329D+00 0.377D+00
 Coeff-Com:  0.105D+01
 Coeff:      0.113D-03-0.522D-02 0.681D-03 0.266D-01-0.196D-01-0.445D-01
 Coeff:     -0.630D-02 0.785D-01 0.764D-01-0.208D+00-0.329D+00 0.377D+00
 Coeff:      0.105D+01
 Gap=     0.272 Goal=   None    Shift=    0.000
 Gap=     0.179 Goal=   None    Shift=    0.000
 RMSDP=1.30D-08 MaxDP=4.34D-07 DE=-2.96D-12 OVMax= 4.39D-06

 Cycle  26  Pass 1  IDiag  1:
 RMSU=  4.05D-09    CP:  1.00D+00  1.07D+00  3.00D+00  3.00D+00  3.00D+00
                    CP:  2.00D+00  1.98D+00  2.06D+00  1.89D+00  1.65D+00
                    CP:  2.26D+00  2.30D+00  1.75D+00
 E= -687.055826192999     Delta-E=        0.000000000015 Rises=F Damp=F
 DIIS: error= 4.59D-08 at cycle  14 NSaved=  14.
 NSaved=14 IEnMin=13 EnMin= -687.055826193014     IErMin=14 ErrMin= 4.59D-08
 ErrMax= 4.59D-08  0.00D+00 EMaxC= 1.00D-01 BMatC= 5.63D-13 BMatP= 1.74D-12
 IDIUse=1 WtCom= 1.00D+00 WtEn= 0.00D+00
 Coeff-Com:  0.764D-04-0.267D-02-0.541D-03 0.103D-01-0.554D-02-0.125D-01
 Coeff-Com: -0.798D-02 0.129D-01 0.382D-01 0.508D-01-0.149D+00-0.264D+00
 Coeff-Com:  0.103D+00 0.123D+01
 Coeff:      0.764D-04-0.267D-02-0.541D-03 0.103D-01-0.554D-02-0.125D-01
 Coeff:     -0.798D-02 0.129D-01 0.382D-01 0.508D-01-0.149D+00-0.264D+00
 Coeff:      0.103D+00 0.123D+01
 Gap=     0.272 Goal=   None    Shift=    0.000
 Gap=     0.179 Goal=   None    Shift=    0.000
 RMSDP=9.81D-09 MaxDP=3.14D-07 DE= 1.46D-11 OVMax= 3.69D-06

 SCF Done:  E(ULC-wHPBE) =  -687.055826193     A.U. after   26 cycles
            NFock= 26  Conv=0.98D-08     -V/T= 2.0106
 <Sx>= 0.0000 <Sy>= 0.0000 <Sz>= 0.5000 <S**2>= 0.7642 S= 0.5071
 <L.S>= 0.000000000000E+00
 KE= 6.798271034572D+02 PE=-3.711255883594D+03 EE= 1.267694368533D+03
 Annihilation of the first spin contaminant:
 S**2 before annihilation     0.7642,   after     0.7502
 Leave Link  502 at Wed May 11 06:07:02 2022, MaxMem=  6442450944 cpu:            2948.2 elap:             187.8
 (Enter /mnt/gpfs3_amd/share/apps/amd/gaussian/g16-A.03/g16/l601.exe)
 Copying SCF densities to generalized density rwf, IOpCl= 1 IROHF=0.

 **********************************************************************

            Population analysis using the SCF density.

 **********************************************************************

 Orbital symmetries:
 Alpha Orbitals:
       Occupied  (A) (A) (A) (A) (A) (A) (A) (A) (A) (A) (A) (A)
                 (A) (A) (A) (A) (A) (A) (A) (A) (A) (A) (A) (A)
                 (A) (A) (A) (A) (A) (A) (A) (A) (A) (A) (A) (A)
                 (A) (A) (A) (A) (A) (A) (A) (A) (A) (A) (A) (A)
                 (A) (A) (A) (A) (A) (A) (A) (A) (A) (A)
       Virtual   (A) (A) (A) (A) (A) (A) (A) (A) (A) (A) (A) (A)
                 (A) (A) (A) (A) (A) (A) (A) (A) (A) (A) (A) (A)
                 (A) (A) (A) (A) (A) (A) (A) (A) (A) (A) (A) (A)
                 (A) (A) (A) (A) (A) (A) (A) (A) (A) (A) (A) (A)
                 (A) (A) (A) (A) (A) (A) (A) (A) (A) (A) (A) (A)
                 (A) (A) (A) (A) (A) (A) (A) (A) (A) (A) (A) (A)
                 (A) (A) (A) (A) (A) (A) (A) (A) (A) (A) (A) (A)
                 (A) (A) (A) (A) (A) (A) (A) (A) (A) (A) (A) (A)
                 (A) (A) (A) (A) (A) (A) (A) (A) (A) (A) (A) (A)
                 (A) (A) (A) (A) (A) (A) (A) (A) (A) (A) (A) (A)
                 (A) (A) (A) (A) (A) (A) (A) (A) (A) (A) (A) (A)
                 (A) (A) (A) (A) (A) (A) (A) (A) (A) (A) (A) (A)
                 (A) (A) (A) (A) (A) (A) (A) (A) (A) (A) (A) (A)
                 (A) (A) (A) (A) (A) (A) (A) (A) (A) (A) (A) (A)
                 (A) (A) (A) (A) (A) (A) (A) (A) (A) (A) (A) (A)
                 (A) (A) (A) (A) (A) (A) (A) (A) (A) (A) (A) (A)
                 (A) (A) (A) (A) (A) (A) (A) (A) (A) (A) (A) (A)
                 (A) (A) (A) (A) (A) (A) (A) (A) (A) (A) (A) (A)
                 (A) (A) (A) (A) (A) (A) (A) (A) (A) (A) (A) (A)
                 (A) (A) (A) (A) (A) (A) (A) (A) (A) (A) (A) (A)
                 (A) (A) (A) (A) (A)
 Beta  Orbitals:
       Occupied  (A) (A) (A) (A) (A) (A) (A) (A) (A) (A) (A) (A)
                 (A) (A) (A) (A) (A) (A) (A) (A) (A) (A) (A) (A)
                 (A) (A) (A) (A) (A) (A) (A) (A) (A) (A) (A) (A)
                 (A) (A) (A) (A) (A) (A) (A) (A) (A) (A) (A) (A)
                 (A) (A) (A) (A) (A) (A) (A) (A) (A)
       Virtual   (A) (A) (A) (A) (A) (A) (A) (A) (A) (A) (A) (A)
                 (A) (A) (A) (A) (A) (A) (A) (A) (A) (A) (A) (A)
                 (A) (A) (A) (A) (A) (A) (A) (A) (A) (A) (A) (A)
                 (A) (A) (A) (A) (A) (A) (A) (A) (A) (A) (A) (A)
                 (A) (A) (A) (A) (A) (A) (A) (A) (A) (A) (A) (A)
                 (A) (A) (A) (A) (A) (A) (A) (A) (A) (A) (A) (A)
                 (A) (A) (A) (A) (A) (A) (A) (A) (A) (A) (A) (A)
                 (A) (A) (A) (A) (A) (A) (A) (A) (A) (A) (A) (A)
                 (A) (A) (A) (A) (A) (A) (A) (A) (A) (A) (A) (A)
                 (A) (A) (A) (A) (A) (A) (A) (A) (A) (A) (A) (A)
                 (A) (A) (A) (A) (A) (A) (A) (A) (A) (A) (A) (A)
                 (A) (A) (A) (A) (A) (A) (A) (A) (A) (A) (A) (A)
                 (A) (A) (A) (A) (A) (A) (A) (A) (A) (A) (A) (A)
                 (A) (A) (A) (A) (A) (A) (A) (A) (A) (A) (A) (A)
                 (A) (A) (A) (A) (A) (A) (A) (A) (A) (A) (A) (A)
                 (A) (A) (A) (A) (A) (A) (A) (A) (A) (A) (A) (A)
                 (A) (A) (A) (A) (A) (A) (A) (A) (A) (A) (A) (A)
                 (A) (A) (A) (A) (A) (A) (A) (A) (A) (A) (A) (A)
                 (A) (A) (A) (A) (A) (A) (A) (A) (A) (A) (A) (A)
                 (A) (A) (A) (A) (A) (A) (A) (A) (A) (A) (A) (A)
                 (A) (A) (A) (A) (A) (A)
 The electronic state is 2-A.
 Alpha  occ. eigenvalues --  -14.53181 -14.45959 -10.46695 -10.46277 -10.43084
 Alpha  occ. eigenvalues --  -10.36638 -10.36563 -10.31100 -10.31009 -10.30737
 Alpha  occ. eigenvalues --  -10.30679 -10.29631 -10.29385 -10.29364 -10.29269
 Alpha  occ. eigenvalues --  -10.28765 -10.28620  -1.36424  -1.32302  -1.23632
 Alpha  occ. eigenvalues --   -1.19963  -1.18187  -1.10395  -1.09092  -1.07241
 Alpha  occ. eigenvalues --   -1.06816  -1.00808  -0.98591  -0.97509  -0.94746
 Alpha  occ. eigenvalues --   -0.94416  -0.93439  -0.89978  -0.89616  -0.88927
 Alpha  occ. eigenvalues --   -0.84223  -0.84028  -0.82828  -0.81984  -0.80164
 Alpha  occ. eigenvalues --   -0.79560  -0.78531  -0.77008  -0.76814  -0.75416
 Alpha  occ. eigenvalues --   -0.75183  -0.74450  -0.73801  -0.69727  -0.69554
 Alpha  occ. eigenvalues --   -0.68941  -0.67492  -0.66598  -0.64468  -0.62492
 Alpha  occ. eigenvalues --   -0.60330  -0.59817  -0.59015
 Alpha virt. eigenvalues --   -0.31782  -0.28231  -0.23684  -0.22266  -0.20833
 Alpha virt. eigenvalues --   -0.20031  -0.16852  -0.13022  -0.11185  -0.10762
 Alpha virt. eigenvalues --   -0.09988  -0.09201  -0.07327  -0.06354  -0.06051
 Alpha virt. eigenvalues --   -0.05241  -0.04698  -0.04600  -0.04145  -0.03292
 Alpha virt. eigenvalues --   -0.01184  -0.00820   0.00136   0.01210   0.01945
 Alpha virt. eigenvalues --    0.03127   0.04443   0.07117   0.07790   0.09700
 Alpha virt. eigenvalues --    0.10278   0.10597   0.10716   0.12635   0.13430
 Alpha virt. eigenvalues --    0.15402   0.16158   0.17030   0.17296   0.18876
 Alpha virt. eigenvalues --    0.19801   0.20997   0.21599   0.22498   0.22914
 Alpha virt. eigenvalues --    0.23758   0.24074   0.26152   0.26291   0.28415
 Alpha virt. eigenvalues --    0.28942   0.29578   0.30152   0.30560   0.31307
 Alpha virt. eigenvalues --    0.31598   0.31682   0.31885   0.32869   0.34413
 Alpha virt. eigenvalues --    0.36028   0.36918   0.37059   0.37325   0.38877
 Alpha virt. eigenvalues --    0.39720   0.40257   0.41976   0.42479   0.43119
 Alpha virt. eigenvalues --    0.44023   0.45049   0.46012   0.46414   0.46912
 Alpha virt. eigenvalues --    0.47380   0.47907   0.48734   0.49260   0.49894
 Alpha virt. eigenvalues --    0.50920   0.51492   0.51707   0.53421   0.54748
 Alpha virt. eigenvalues --    0.54945   0.55161   0.55338   0.56779   0.57645
 Alpha virt. eigenvalues --    0.58588   0.58973   0.59732   0.60153   0.61026
 Alpha virt. eigenvalues --    0.62565   0.63647   0.63919   0.66106   0.67706
 Alpha virt. eigenvalues --    0.70899   0.72148   0.73444   0.74450   0.76458
 Alpha virt. eigenvalues --    0.77509   0.81168   0.83333   0.86790   0.87734
 Alpha virt. eigenvalues --    0.89321   0.90140   0.91408   0.94247   0.98875
 Alpha virt. eigenvalues --    0.99763   1.00377   1.01687   1.03136   1.03727
 Alpha virt. eigenvalues --    1.04097   1.05691   1.06710   1.06996   1.07676
 Alpha virt. eigenvalues --    1.08520   1.08930   1.09799   1.12713   1.13390
 Alpha virt. eigenvalues --    1.15004   1.20951   1.21980   1.26719   1.31402
 Alpha virt. eigenvalues --    1.33109   1.33903   1.36520   1.39282   1.43097
 Alpha virt. eigenvalues --    1.44527   1.45303   1.45541   1.46193   1.47876
 Alpha virt. eigenvalues --    1.49220   1.50530   1.52540   1.53083   1.53630
 Alpha virt. eigenvalues --    1.54115   1.54699   1.55147   1.55820   1.56119
 Alpha virt. eigenvalues --    1.56908   1.57281   1.57941   1.59459   1.59619
 Alpha virt. eigenvalues --    1.61757   1.62541   1.62718   1.65248   1.65426
 Alpha virt. eigenvalues --    1.66079   1.71710   1.73474   1.73868   1.74740
 Alpha virt. eigenvalues --    1.75466   1.77415   1.77573   1.77946   1.78140
 Alpha virt. eigenvalues --    1.79129   1.80305   1.80939   1.82890   1.83598
 Alpha virt. eigenvalues --    1.87914   1.88187   1.89965   1.91612   1.92356
 Alpha virt. eigenvalues --    1.93208   1.93536   1.94795   1.95099   1.95963
 Alpha virt. eigenvalues --    1.96726   1.98106   2.01355   2.05138   2.05478
 Alpha virt. eigenvalues --    2.06203   2.06870   2.07988   2.09321   2.10599
 Alpha virt. eigenvalues --    2.11904   2.12332   2.12601   2.12781   2.18011
 Alpha virt. eigenvalues --    2.19645   2.21462   2.23553   2.27032   2.32808
 Alpha virt. eigenvalues --    2.33743   2.36033   2.37724   2.39139   2.40204
 Alpha virt. eigenvalues --    2.41458   2.42575   2.42730   2.43010   2.51766
 Alpha virt. eigenvalues --    2.51984   2.53030   2.53523   2.54332   2.56828
 Alpha virt. eigenvalues --    2.59438   2.63055   2.66782   2.67827   2.68660
 Alpha virt. eigenvalues --    2.69822   2.75208   2.81729   2.87819   2.89307
 Alpha virt. eigenvalues --    2.90031   2.91766   2.96553   3.00081   3.04289
 Alpha virt. eigenvalues --    3.08271   3.09890   3.19215   3.44372   3.46019
  Beta  occ. eigenvalues --  -14.52599 -14.45955 -10.46736 -10.46239 -10.42997
  Beta  occ. eigenvalues --  -10.36525 -10.36465 -10.30901 -10.30813 -10.30680
  Beta  occ. eigenvalues --  -10.30616 -10.29394 -10.29356 -10.29266 -10.29161
  Beta  occ. eigenvalues --  -10.28848 -10.28706  -1.35932  -1.31791  -1.23597
  Beta  occ. eigenvalues --   -1.19582  -1.17774  -1.09987  -1.08599  -1.06988
  Beta  occ. eigenvalues --   -1.06605  -1.00372  -0.98397  -0.97182  -0.94473
  Beta  occ. eigenvalues --   -0.94265  -0.93234  -0.89802  -0.89475  -0.88744
  Beta  occ. eigenvalues --   -0.83832  -0.83373  -0.82632  -0.81771  -0.79975
  Beta  occ. eigenvalues --   -0.79314  -0.78340  -0.76828  -0.76657  -0.75257
  Beta  occ. eigenvalues --   -0.75067  -0.73526  -0.72976  -0.69591  -0.68830
  Beta  occ. eigenvalues --   -0.68108  -0.67327  -0.65421  -0.64346  -0.60035
  Beta  occ. eigenvalues --   -0.59510  -0.59247
  Beta virt. eigenvalues --   -0.41368  -0.31104  -0.27821  -0.22611  -0.21602
  Beta virt. eigenvalues --   -0.20155  -0.18487  -0.16698  -0.12687  -0.10971
  Beta virt. eigenvalues --   -0.10658  -0.09884  -0.09070  -0.07237  -0.06210
  Beta virt. eigenvalues --   -0.05811  -0.05004  -0.04523  -0.04089  -0.03896
  Beta virt. eigenvalues --   -0.03083  -0.01136  -0.00746   0.00417   0.01345
  Beta virt. eigenvalues --    0.02210   0.03273   0.04910   0.07310   0.08101
  Beta virt. eigenvalues --    0.09846   0.10407   0.10717   0.10869   0.12912
  Beta virt. eigenvalues --    0.13678   0.15609   0.16441   0.17301   0.17526
  Beta virt. eigenvalues --    0.19149   0.20067   0.21166   0.21748   0.22674
  Beta virt. eigenvalues --    0.23082   0.23993   0.24334   0.26523   0.26622
  Beta virt. eigenvalues --    0.28697   0.29220   0.29890   0.30404   0.30679
  Beta virt. eigenvalues --    0.31570   0.31856   0.31924   0.32162   0.33138
  Beta virt. eigenvalues --    0.34687   0.36253   0.37069   0.37233   0.37898
  Beta virt. eigenvalues --    0.39097   0.39792   0.40361   0.42175   0.42662
  Beta virt. eigenvalues --    0.43619   0.44336   0.45236   0.46217   0.46559
  Beta virt. eigenvalues --    0.47103   0.47551   0.47995   0.48808   0.49475
  Beta virt. eigenvalues --    0.50072   0.51184   0.51742   0.51962   0.53714
  Beta virt. eigenvalues --    0.54889   0.55134   0.55337   0.55428   0.57077
  Beta virt. eigenvalues --    0.57803   0.58825   0.59185   0.59936   0.60209
  Beta virt. eigenvalues --    0.61218   0.62791   0.63921   0.64084   0.66285
  Beta virt. eigenvalues --    0.67945   0.71172   0.72449   0.73598   0.74548
  Beta virt. eigenvalues --    0.76634   0.77788   0.81443   0.83600   0.86942
  Beta virt. eigenvalues --    0.87990   0.89612   0.90429   0.91694   0.94604
  Beta virt. eigenvalues --    0.99115   1.00022   1.00627   1.01833   1.03306
  Beta virt. eigenvalues --    1.03989   1.04451   1.06111   1.07051   1.07246
  Beta virt. eigenvalues --    1.07951   1.08789   1.09236   1.10167   1.12967
  Beta virt. eigenvalues --    1.13639   1.15283   1.21167   1.22165   1.26911
  Beta virt. eigenvalues --    1.31587   1.33203   1.34097   1.36897   1.39622
  Beta virt. eigenvalues --    1.43247   1.44769   1.45454   1.45775   1.46309
  Beta virt. eigenvalues --    1.48037   1.49345   1.50809   1.52766   1.53337
  Beta virt. eigenvalues --    1.54046   1.54397   1.54991   1.55522   1.56197
  Beta virt. eigenvalues --    1.56352   1.57021   1.57539   1.58232   1.59591
  Beta virt. eigenvalues --    1.59814   1.61846   1.62631   1.63065   1.65574
  Beta virt. eigenvalues --    1.65754   1.66402   1.71926   1.73763   1.74172
  Beta virt. eigenvalues --    1.75051   1.75658   1.77680   1.77751   1.78139
  Beta virt. eigenvalues --    1.78364   1.79238   1.80553   1.81028   1.83128
  Beta virt. eigenvalues --    1.83800   1.88296   1.88373   1.90258   1.91921
  Beta virt. eigenvalues --    1.92843   1.93441   1.93738   1.95073   1.95263
  Beta virt. eigenvalues --    1.96517   1.97146   1.98518   2.01453   2.05472
  Beta virt. eigenvalues --    2.06020   2.06607   2.07503   2.08385   2.09586
  Beta virt. eigenvalues --    2.10920   2.12074   2.12622   2.13035   2.13127
  Beta virt. eigenvalues --    2.18305   2.20015   2.21681   2.24139   2.27409
  Beta virt. eigenvalues --    2.33085   2.33928   2.36426   2.38274   2.39403
  Beta virt. eigenvalues --    2.40526   2.41909   2.42902   2.43209   2.43441
  Beta virt. eigenvalues --    2.51833   2.52476   2.53125   2.53764   2.54663
  Beta virt. eigenvalues --    2.57304   2.59763   2.63280   2.66988   2.68095
  Beta virt. eigenvalues --    2.68860   2.70045   2.75468   2.81961   2.87943
  Beta virt. eigenvalues --    2.89523   2.90178   2.91887   2.96715   3.00240
  Beta virt. eigenvalues --    3.04421   3.08414   3.10033   3.19432   3.44510
  Beta virt. eigenvalues --    3.46163
          Condensed to atoms (all electrons):
               1          2          3          4          5          6
     1  N    5.952371   0.515356  -0.037469  -0.050320  -0.000485   0.000309
     2  C    0.515356   4.957954   0.235282   0.169807  -0.025848  -0.007318
     3  C   -0.037469   0.235282   5.193174   0.134662  -0.029600   0.002828
     4  C   -0.050320   0.169807   0.134662   5.286882   0.352647  -0.057707
     5  N   -0.000485  -0.025848  -0.029600   0.352647   6.680933   0.271841
     6  C    0.000309  -0.007318   0.002828  -0.057707   0.271841   5.480575
     7  C    0.000125  -0.000695  -0.002893  -0.001586  -0.081325   0.108369
     8  C   -0.000003   0.000212  -0.000080  -0.000094   0.008363   0.162912
     9  C    0.000000  -0.000002  -0.000007   0.000075  -0.000888  -0.194660
    10  C   -0.000001  -0.000011   0.000019   0.000025   0.008915   0.173677
    11  C   -0.000013   0.000454  -0.000472   0.002991  -0.075856   0.114680
    12  C   -0.000071  -0.002558  -0.004947  -0.048672   0.265838  -0.041040
    13  C    0.000000  -0.000613   0.000504   0.001591  -0.072409   0.007757
    14  C   -0.000000   0.000026  -0.000010   0.000048   0.009769  -0.001607
    15  C    0.000000  -0.000002  -0.000007   0.000069  -0.000984   0.000188
    16  C    0.000000  -0.000002   0.000036  -0.000054   0.007937  -0.000369
    17  C   -0.000000  -0.001423  -0.000783  -0.000259  -0.078127   0.004532
    18  H    0.375644  -0.014354   0.005680  -0.009880   0.000163   0.000005
    19  H    0.360296  -0.004464  -0.007393   0.009492  -0.000014  -0.000019
    20  H   -0.000376  -0.037372   0.442097  -0.032458  -0.000362  -0.000097
    21  H    0.000027   0.000177  -0.004459   0.008452  -0.014665  -0.089918
    22  H   -0.000000   0.000001   0.000005  -0.000043  -0.000107   0.014971
    23  H    0.000000  -0.000000   0.000000  -0.000000   0.000011  -0.001949
    24  H    0.000000   0.000000  -0.000000   0.000002  -0.000057   0.015359
    25  H    0.000000  -0.000020   0.000002  -0.000511  -0.015551  -0.077248
    26  H   -0.000000  -0.000029   0.000014  -0.000686  -0.016297   0.010243
    27  H   -0.000000  -0.000000   0.000000   0.000001  -0.000096  -0.000047
    28  H    0.000000   0.000000  -0.000000   0.000000   0.000011   0.000001
    29  H   -0.000000   0.000001   0.000003  -0.000030  -0.000082   0.000006
    30  H    0.000026  -0.002901  -0.000446   0.006513  -0.014305  -0.000546
               7          8          9         10         11         12
     1  N    0.000125  -0.000003   0.000000  -0.000001  -0.000013  -0.000071
     2  C   -0.000695   0.000212  -0.000002  -0.000011   0.000454  -0.002558
     3  C   -0.002893  -0.000080  -0.000007   0.000019  -0.000472  -0.004947
     4  C   -0.001586  -0.000094   0.000075   0.000025   0.002991  -0.048672
     5  N   -0.081325   0.008363  -0.000888   0.008915  -0.075856   0.265838
     6  C    0.108369   0.162912  -0.194660   0.173677   0.114680  -0.041040
     7  C    5.270049   0.245671   0.122625  -0.176574   0.102034   0.003317
     8  C    0.245671   5.031519   0.215739   0.139211  -0.177542  -0.000386
     9  C    0.122625   0.215739   5.080980   0.196129   0.136430   0.000172
    10  C   -0.176574   0.139211   0.196129   5.093756   0.197390  -0.001279
    11  C    0.102034  -0.177542   0.136430   0.197390   5.234110   0.007672
    12  C    0.003317  -0.000386   0.000172  -0.001279   0.007672   5.461916
    13  C   -0.000221   0.000090  -0.000084  -0.000401  -0.006171   0.117091
    14  C    0.000025   0.000003  -0.000000   0.000014  -0.000429   0.175130
    15  C   -0.000005   0.000000  -0.000000  -0.000000  -0.000084  -0.196710
    16  C    0.000010  -0.000000   0.000000   0.000003   0.000091   0.161719
    17  C   -0.000949   0.000009  -0.000004   0.000004  -0.000091   0.123986
    18  H   -0.000008  -0.000001   0.000000  -0.000000   0.000002  -0.000013
    19  H    0.000019   0.000002   0.000000  -0.000000   0.000001   0.000003
    20  H    0.000010   0.000001   0.000000   0.000000   0.000002   0.000282
    21  H    0.456868  -0.049106   0.014023  -0.002611   0.016386  -0.000513
    22  H   -0.062644   0.449337  -0.059924   0.014038  -0.001746   0.000008
[...]
     1  N    0.073028   0.017759
     2  C    0.117698   0.004781
     3  C   -0.084586   0.108475
     4  C    0.222984  -0.034715
     5  N   -0.102313   0.174717
     6  C    0.039819   0.046316
     7  C   -0.023225   0.026591
     8  C    0.010728   0.000198
     9  C    0.064658   0.132141
    10  C    0.007812  -0.063006
    11  C    0.037650   0.103316
    12  C    0.091884   0.151348
    13  C    0.047397   0.144747
    14  C    0.014057  -0.097697
    15  C    0.085386   0.284277
    16  C    0.022800  -0.012668
    17  C    0.008960   0.044920
    18  H    0.204934  -0.000697
    19  H    0.218816  -0.000541
    20  H    0.131774  -0.004024
    21  H    0.046834  -0.001355
    22  H    0.082071  -0.000206
    23  H    0.091227  -0.005750
    24  H    0.084786   0.002914
    25  H    0.067237  -0.004136
    26  H    0.087835  -0.005887
    27  H    0.094247   0.003641
    28  H    0.104798  -0.012359
    29  H    0.094017  -0.000145
    30  H    0.056688  -0.002953
 Sum of Mulliken charges =   2.00000   1.00000
 Mulliken charges and spin densities with hydrogens summed into heavy atoms:
               1          2
     1  N    0.496777   0.016520
     2  C    0.117698   0.004781
     3  C    0.047187   0.104450
     4  C    0.222984  -0.034715
     5  N   -0.102313   0.174717
     6  C    0.039819   0.046316
     7  C    0.023609   0.025236
     8  C    0.092798  -0.000009
     9  C    0.155885   0.126391
    10  C    0.092598  -0.060092
    11  C    0.104887   0.099180
    12  C    0.091884   0.151348
    13  C    0.135232   0.138860
    14  C    0.108304  -0.094056
    15  C    0.190184   0.271918
    16  C    0.116818  -0.012812
    17  C    0.065648   0.041967
 Electronic spatial extent (au):  <R**2>=           4014.2367
 Charge=              2.0000 electrons
 Dipole moment (field-independent basis, Debye):
    X=             -1.7084    Y=              6.3759    Z=              0.1990  Tot=              6.6038
 Quadrupole moment (field-independent basis, Debye-Ang):
   XX=            -12.2796   YY=            -26.1441   ZZ=            -88.2079
   XY=            -11.6428   XZ=              1.2253   YZ=              1.0396
 Traceless Quadrupole moment (field-independent basis, Debye-Ang):
   XX=             29.9309   YY=             16.0665   ZZ=            -45.9974
   XY=            -11.6428   XZ=              1.2253   YZ=              1.0396
 Octapole moment (field-independent basis, Debye-Ang**2):
  XXX=             41.2006  YYY=            128.3919  ZZZ=              1.3129  XYY=            -86.2234
  XXY=              5.0597  XXZ=             -3.2561  XZZ=             -4.9810  YZZ=             -6.4863
  YYZ=             10.4070  XYZ=             13.2346
 Hexadecapole moment (field-independent basis, Debye-Ang**3):
 XXXX=          -1800.0093 YYYY=          -1121.5678 ZZZZ=           -295.5938 XXXY=           -177.2699
 XXXZ=             56.9507 YYYX=           -175.1071 YYYZ=            -33.0454 ZZZX=              8.6548
 ZZZY=             -5.4780 XXYY=           -388.8283 XXZZ=           -534.0711 YYZZ=           -340.6494
 XXYZ=             75.3428 YYXZ=            -57.1379 ZZXY=             -0.1249
 N-N= 1.083629514078D+03 E-N=-3.724521342053D+03  KE= 6.792870981464D+02
                          Isotropic Fermi Contact Couplings
        Atom                 a.u.       MegaHertz       Gauss      10(-4) cm-1
     1  N(14)              0.00408       1.31869       0.47054       0.43987
     2  C(13)             -0.00159      -1.78493      -0.63691      -0.59539
     3  C(13)              0.01860      20.91131       7.46167       6.97526
     4  C(13)             -0.01912     -21.49201      -7.66889      -7.16896
     5  N(14)              0.04936      15.94708       5.69032       5.31937
     6  C(13)             -0.00178      -2.00098      -0.71400      -0.66746
     7  C(13)              0.00591       6.64162       2.36990       2.21541
     8  C(13)             -0.00331      -3.72093      -1.32772      -1.24117
     9  C(13)              0.01849      20.78783       7.41761       6.93407
    10  C(13)             -0.01322     -14.86121      -5.30285      -4.95717
    11  C(13)              0.01400      15.74021       5.61650       5.25037
    12  C(13)              0.00957      10.75759       3.83858       3.58835
    13  C(13)              0.01774      19.94101       7.11545       6.65161
    14  C(13)             -0.02171     -24.40110      -8.70692      -8.13933
    15  C(13)              0.04030      45.30972      16.16763      15.11370
    16  C(13)             -0.00905     -10.17558      -3.63090      -3.39421
    17  C(13)              0.00385       4.32500       1.54327       1.44267
    18  H(1)              -0.00032      -1.41743      -0.50577      -0.47280
    19  H(1)              -0.00026      -1.18113      -0.42146      -0.39398
    20  H(1)              -0.00161      -7.18595      -2.56412      -2.39697
    21  H(1)              -0.00056      -2.49811      -0.89139      -0.83328
    22  H(1)              -0.00005      -0.21217      -0.07571      -0.07077
    23  H(1)              -0.00175      -7.80810      -2.78612      -2.60450
    24  H(1)               0.00098       4.39456       1.56809       1.46587
    25  H(1)              -0.00089      -3.97595      -1.41872      -1.32623
    26  H(1)              -0.00158      -7.06305      -2.52027      -2.35598
    27  H(1)               0.00118       5.26029       1.87700       1.75464
    28  H(1)              -0.00382     -17.05567      -6.08589      -5.68916
    29  H(1)              -0.00003      -0.13705      -0.04890      -0.04571
    30  H(1)              -0.00095      -4.24315      -1.51406      -1.41536
 --------------------------------------------------------
       Center         ----  Spin Dipole Couplings  ----
                      3XX-RR        3YY-RR        3ZZ-RR
 --------------------------------------------------------
     1   Atom       -0.017685     -0.018745      0.036430
     2   Atom       -0.000609     -0.006783      0.007392
     3   Atom       -0.057156     -0.058532      0.115688
     4   Atom       -0.001676      0.026168     -0.024492
     5   Atom       -0.233455     -0.235072      0.468528
     6   Atom       -0.004858     -0.033302      0.038159
     7   Atom        0.018219     -0.010893     -0.007327
     8   Atom        0.006669     -0.004198     -0.002471
     9   Atom       -0.030152     -0.010670      0.040822
    10   Atom        0.008137      0.004398     -0.012535
    11   Atom        0.002636      0.021730     -0.024366
    12   Atom       -0.081489     -0.059633      0.141122
    13   Atom       -0.078646      0.041324      0.037323
    14   Atom        0.036236      0.010140     -0.046377
    15   Atom       -0.139297     -0.054167      0.193463
    16   Atom       -0.003414      0.003886     -0.000472
    17   Atom       -0.021912      0.006703      0.015209
    18   Atom        0.001282      0.000359     -0.001641
    19   Atom       -0.000687      0.002071     -0.001384
    20   Atom       -0.000508      0.002424     -0.001916
    21   Atom        0.000898     -0.000766     -0.000132
    22   Atom        0.000395     -0.001616      0.001221
    23   Atom        0.001885      0.002982     -0.004867
    24   Atom        0.001272     -0.000355     -0.000916
    25   Atom        0.000916     -0.004404      0.003488
    26   Atom       -0.001841     -0.000456      0.002297
    27   Atom        0.002204     -0.000646     -0.001557
    28   Atom        0.017264     -0.010993     -0.006271
    29   Atom       -0.001969      0.001964      0.000006
    30   Atom       -0.003912      0.004984     -0.001073
 --------------------------------------------------------
                        XY            XZ            YZ
 --------------------------------------------------------
     1   Atom       -0.000894      0.005111      0.003393
     2   Atom       -0.001191     -0.000501      0.005423
     3   Atom       -0.001925      0.025992      0.002951
     4   Atom       -0.007395     -0.011794     -0.003757
     5   Atom       -0.001220     -0.014765      0.004430
     6   Atom       -0.012100     -0.048732      0.022678
     7   Atom       -0.016459     -0.017384      0.009248
     8   Atom       -0.006144     -0.009035      0.001586
     9   Atom       -0.042970     -0.064022      0.078343
    10   Atom        0.020270      0.024910     -0.026137
    11   Atom       -0.072112     -0.047510      0.050754
    12   Atom        0.019228     -0.051948     -0.092034
    13   Atom        0.035188     -0.034748     -0.119901
    14   Atom       -0.004670      0.012691      0.043518
    15   Atom        0.015550     -0.034664     -0.179058
    16   Atom        0.004506     -0.008488     -0.006635
    17   Atom        0.022017     -0.021169     -0.041239
    18   Atom        0.000782     -0.000499     -0.000011
    19   Atom       -0.002003     -0.000017      0.000025
    20   Atom        0.006876     -0.000656     -0.001397
    21   Atom       -0.001955      0.003477     -0.002507
    22   Atom       -0.000628      0.002560     -0.001090
    23   Atom        0.007645     -0.003798      0.001322
    24   Atom        0.001958      0.000979     -0.000647
    25   Atom        0.000332      0.005228     -0.001053
    26   Atom        0.006698      0.007793      0.006296
    27   Atom        0.001165      0.001460      0.002780
    28   Atom       -0.010668     -0.003784     -0.005712
    29   Atom        0.002438      0.002322      0.004341
    30   Atom        0.001512      0.000910      0.005425
 --------------------------------------------------------


 ---------------------------------------------------------------------------------
              Anisotropic Spin Dipole Couplings in Principal Axis System
 ---------------------------------------------------------------------------------

       Atom             a.u.   MegaHertz   Gauss  10(-4) cm-1        Axes

              Baa    -0.0198    -0.764    -0.273    -0.255  0.5817  0.8070 -0.1015
     1 N(14)  Bbb    -0.0173    -0.667    -0.238    -0.222  0.8082 -0.5876 -0.0398
              Bcc     0.0371     1.431     0.511     0.477  0.0918  0.0589  0.9940
 
              Baa    -0.0087    -1.172    -0.418    -0.391  0.1187  0.9423 -0.3132
     2 C(13)  Bbb    -0.0006    -0.076    -0.027    -0.025  0.9891 -0.0848  0.1200
              Bcc     0.0093     1.248     0.445     0.416 -0.0866  0.3240  0.9421
 
              Baa    -0.0624    -8.374    -2.988    -2.793  0.8438  0.5202 -0.1318
     3 C(13)  Bbb    -0.0571    -7.669    -2.736    -2.558 -0.5165  0.8539  0.0631
              Bcc     0.1196    16.043     5.724     5.351  0.1453  0.0148  0.9893
 
              Baa    -0.0302    -4.055    -1.447    -1.353  0.4044  0.1135  0.9075
     4 C(13)  Bbb     0.0022     0.294     0.105     0.098  0.8838  0.2068 -0.4197
              Bcc     0.0280     3.760     1.342     1.254 -0.2353  0.9718 -0.0167
 
              Baa    -0.2357    -9.092    -3.244    -3.033  0.4952  0.8688  0.0049
     5 N(14)  Bbb    -0.2331    -8.991    -3.208    -2.999  0.8685 -0.4952  0.0214
              Bcc     0.4689    18.083     6.453     6.032 -0.0210  0.0063  0.9998
 
              Baa    -0.0405    -5.438    -1.941    -1.814 -0.3013  0.8502 -0.4317
     6 C(13)  Bbb    -0.0354    -4.750    -1.695    -1.584  0.7942  0.4743  0.3799
              Bcc     0.0759    10.188     3.635     3.398 -0.5277  0.2283  0.8181
 
              Baa    -0.0189    -2.534    -0.904    -0.845  0.2075  0.8920 -0.4016
     7 C(13)  Bbb    -0.0159    -2.136    -0.762    -0.713  0.5305  0.2423  0.8123
              Bcc     0.0348     4.671     1.667     1.558  0.8219 -0.3816 -0.4229
 
              Baa    -0.0091    -1.223    -0.437    -0.408  0.5685  0.4994  0.6537
     8 C(13)  Bbb    -0.0051    -0.687    -0.245    -0.229 -0.0311  0.8072 -0.5895
              Bcc     0.0142     1.910     0.682     0.637  0.8221 -0.3148 -0.4745
 
              Baa    -0.0694    -9.315    -3.324    -3.107  0.5737 -0.4725  0.6690
     9 C(13)  Bbb    -0.0644    -8.636    -3.082    -2.881  0.6999  0.7071 -0.1007
              Bcc     0.1338    17.951     6.405     5.988 -0.4255  0.5260  0.7364
 
              Baa    -0.0494    -6.632    -2.366    -2.212 -0.4869  0.5231  0.6995
    10 C(13)  Bbb     0.0227     3.048     1.088     1.017  0.3612 -0.6085  0.7065
              Bcc     0.0267     3.584     1.279     1.196  0.7952  0.5967  0.1073
 
              Baa    -0.0617    -8.284    -2.956    -2.763  0.7933  0.4139  0.4464
    11 C(13)  Bbb    -0.0570    -7.643    -2.727    -2.549 -0.1195 -0.6132  0.7809
              Bcc     0.1187    15.926     5.683     5.312 -0.5970  0.6728  0.4370
 
              Baa    -0.0957   -12.845    -4.583    -4.285  0.2932  0.8677  0.4015
    12 C(13)  Bbb    -0.0926   -12.423    -4.433    -4.144  0.9347 -0.3485  0.0705
              Bcc     0.1883    25.268     9.016     8.428 -0.2011 -0.3546  0.9131
 
              Baa    -0.0885   -11.878    -4.238    -3.962  0.9806 -0.1308  0.1462
    13 C(13)  Bbb    -0.0806   -10.815    -3.859    -3.607 -0.0123  0.7029  0.7111
              Bcc     0.1691    22.693     8.097     7.570  0.1957  0.6991 -0.6877
 
              Baa    -0.0717    -9.617    -3.432    -3.208 -0.1231 -0.4715  0.8732
    14 C(13)  Bbb     0.0330     4.429     1.580     1.477 -0.3651  0.8397  0.4020
              Bcc     0.0387     5.188     1.851     1.731  0.9228  0.2693  0.2756
 
              Baa    -0.1489   -19.982    -7.130    -6.665  0.3454  0.8168  0.4621
    15 C(13)  Bbb    -0.1418   -19.026    -6.789    -6.346  0.9343 -0.3454 -0.0879
              Bcc     0.2907    39.008    13.919    13.012 -0.0879 -0.4621  0.8824
 
              Baa    -0.0106    -1.425    -0.509    -0.475  0.7398  0.0760  0.6685
    16 C(13)  Bbb    -0.0028    -0.372    -0.133    -0.124 -0.4760  0.7613  0.4403
              Bcc     0.0134     1.797     0.641     0.599  0.4755  0.6439 -0.5994
 
              Baa    -0.0340    -4.562    -1.628    -1.522  0.8141 -0.5671 -0.1250
    17 C(13)  Bbb    -0.0293    -3.934    -1.404    -1.312  0.4730  0.5228  0.7092
              Bcc     0.0633     8.496     3.032     2.834 -0.3368 -0.6365  0.6939
 
              Baa    -0.0017    -0.924    -0.330    -0.308  0.1787 -0.0616  0.9820
    18 H(1)   Bbb    -0.0001    -0.029    -0.010    -0.010 -0.4610  0.8765  0.1389
              Bcc     0.0018     0.952     0.340     0.318  0.8692  0.4775 -0.1282
 
              Baa    -0.0017    -0.929    -0.331    -0.310  0.8852  0.4651  0.0106
    19 H(1)   Bbb    -0.0014    -0.739    -0.264    -0.246 -0.0063 -0.0108  0.9999
              Bcc     0.0031     1.667     0.595     0.556 -0.4652  0.8852  0.0067
 
              Baa    -0.0061    -3.258    -1.163    -1.087  0.7680 -0.6340 -0.0911
    20 H(1)   Bbb    -0.0021    -1.123    -0.401    -0.375  0.1632  0.0561  0.9850
              Bcc     0.0082     4.381     1.563     1.461  0.6194  0.7713 -0.1465
 
              Baa    -0.0034    -1.826    -0.652    -0.609 -0.4477  0.4171  0.7910
    21 H(1)   Bbb    -0.0020    -1.092    -0.390    -0.364  0.6091  0.7898 -0.0718
              Bcc     0.0055     2.918     1.041     0.973  0.6546 -0.4497  0.6077
 
              Baa    -0.0021    -1.107    -0.395    -0.369 -0.3504  0.7737  0.5279
    22 H(1)   Bbb    -0.0016    -0.862    -0.307    -0.287  0.6984  0.5914 -0.4031
              Bcc     0.0037     1.969     0.702     0.657  0.6241 -0.2274  0.7475
 
              Baa    -0.0088    -4.696    -1.676    -1.566  0.5651 -0.4446  0.6949
    23 H(1)   Bbb    -0.0015    -0.790    -0.282    -0.264 -0.4425  0.5476  0.7102
              Bcc     0.0103     5.486     1.958     1.830  0.6963  0.7088 -0.1127
 
              Baa    -0.0024    -1.306    -0.466    -0.436 -0.4928  0.6427  0.5866
    24 H(1)   Bbb    -0.0002    -0.104    -0.037    -0.035  0.2174 -0.5618  0.7982
              Bcc     0.0026     1.410     0.503     0.470  0.8425  0.5209  0.1372
 
              Baa    -0.0049    -2.622    -0.936    -0.875 -0.3389  0.8841  0.3217
    25 H(1)   Bbb    -0.0027    -1.443    -0.515    -0.481  0.7141  0.4643 -0.5239
              Bcc     0.0076     4.065     1.450     1.356  0.6126 -0.0522  0.7887
 
              Baa    -0.0085    -4.545    -1.622    -1.516  0.8362 -0.4108 -0.3634
    26 H(1)   Bbb    -0.0055    -2.934    -1.047    -0.979  0.0724  0.7394 -0.6694
              Bcc     0.0140     7.480     2.669     2.495  0.5437  0.5334  0.6480
 
              Baa    -0.0039    -2.104    -0.751    -0.702 -0.0644 -0.6301  0.7739
    27 H(1)   Bbb     0.0001     0.066     0.024     0.022  0.6545 -0.6120 -0.4439
              Bcc     0.0038     2.038     0.727     0.680  0.7533  0.4779  0.4518
 
              Baa    -0.0183    -9.737    -3.475    -3.248  0.2985  0.8214  0.4860
    28 H(1)   Bbb    -0.0027    -1.446    -0.516    -0.482 -0.0923 -0.4819  0.8713
              Bcc     0.0210    11.183     3.990     3.730  0.9499 -0.3050 -0.0680
 
              Baa    -0.0037    -1.950    -0.696    -0.650 -0.5340 -0.3596  0.7652
    29 H(1)   Bbb    -0.0031    -1.641    -0.586    -0.547  0.7650 -0.5909  0.2562
              Bcc     0.0067     3.591     1.281     1.198  0.3601  0.7222  0.5906
 
              Baa    -0.0043    -2.274    -0.811    -0.758 -0.1906 -0.4735  0.8599
    30 H(1)   Bbb    -0.0042    -2.220    -0.792    -0.740  0.9714 -0.2173  0.0956
              Bcc     0.0084     4.493     1.603     1.499  0.1416  0.8536  0.5013
 

 ---------------------------------------------------------------------------------

 No NMR shielding tensors so no spin-rotation constants.
 Leave Link  601 at Wed May 11 06:47:57 2022, MaxMem=  6442450944 cpu:               8.3 elap:               0.6
 (Enter /mnt/gpfs3_amd/share/apps/amd/gaussian/g16-A.03/g16/l9999.exe)

 Test job not archived.
 1\1\GINC-ROME044\FOpt\ULC-wHPBE\def2SVP\C15H13N2(2+,2)\RDU230\11-May-2
 022\0\\#P LC-wHPBE/Def2SVP iop(3/107=0225700000, 3/108=0225700000) opt
  scf(maxcyc=512)\\H13 C15 N2\\2,2\N,-0.2999045083,4.0302717449,-0.1880
 486058\C,0.5327847884,3.0324586542,-0.145389417\C,1.8395422869,2.54326
 50239,-0.1410351543\C,0.8090302056,1.655291353,-0.0870153106\N,0.34458
 54677,0.3800617819,-0.0258756239\C,-1.0627037377,0.1484051718,-0.14223
 46932\C,-1.8068216448,0.7914031283,-1.1520677983\C,-3.1723456632,0.539
 3288842,-1.2404166172\C,-3.7938571059,-0.3366765477,-0.3280779575\C,-3
 .0477706085,-0.9683859791,0.6746858\C,-1.6777692624,-0.7316861487,0.77
 78910625\C,1.2215162548,-0.7029463675,0.1531973459\C,0.8924975655,-1.9
 50292335,-0.4637012739\C,1.7360073424,-3.0369491486,-0.2952662436\C,2.
 9060124279,-2.9020305779,0.4736064592\C,3.2339156989,-1.6643454109,1.0
 826532695\C,2.4079218028,-0.5666735345,0.9234441841\H,-1.3119090166,3.
 8842834878,-0.1402957325\H,0.0403573482,4.9959156747,-0.2464161714\H,2
 .9156848629,2.7552500382,-0.1574137662\H,-1.3118403217,1.4281582332,-1
 .8991844883\H,-3.7634410437,1.0062671697,-2.0396006388\H,-4.8736569318
 ,-0.5236338514,-0.4054921018\H,-3.5404310305,-1.6375792084,1.392258053
 9\H,-1.0912788674,-1.1831334959,1.5900055547\H,0.0100502506,-2.0210151
 458,-1.1134090079\H,1.5054457856,-3.9916364018,-0.7860886499\H,3.57966
 88123,-3.761573915,0.5990253036\H,4.1382853353,-1.5848241208,1.7006484
 953\H,2.6404235068,0.3730228433,1.4400307232\\Version=AM64L-G16RevA.03
 \State=2-A\HF=-687.1287799\S2=0.766889\S2-1=0.\S2A=0.750213\RMSD=7.462
 e-09\RMSF=1.271e-05\Dipole=0.8887501,2.4413913,0.0035303\Quadrupole=9.
 4920418,23.0815704,-32.5736122,-7.0569032,7.6658938,-5.4340376\PG=C01 
 [X(C15H13N2)]\\@


 THE MORE ACCURATE THE CALCULATIONS BECOME, THE MORE THE CONCEPTS
 TEND TO VANISH INTO THIN AIR.
     -- R.S. MULLIKEN, J.C.P. 43,S2(1965)
 Job cpu time:       0 days 11 hours 35 minutes  0.3 seconds.
 Elapsed time:       0 days  0 hours 44 minutes  5.5 seconds.
 File lengths (MBytes):  RWF=    224 Int=      0 D2E=      0 Chk=     24 Scr=     16
 Normal termination of Gaussian 16 at Wed May 11 06:47:57 2022.
