 Entering Gaussian System, Link 0=/mnt/gpfs3_amd/share/apps/amd/gaussian/g16-A.03/g16/g16
 Input=/scratch/rdu230/d3tales/high_throughput/runfiles//06IVBN/gaussian/gas_phase/opt/opt_groundState.com
 Output=/scratch/rdu230/d3tales/high_throughput/runfiles//06IVBN/gaussian/gas_phase/opt/opt_groundState.log
 Initial command:
 /mnt/gpfs3_amd/share/apps/amd/gaussian/g16-A.03/g16/l1.exe "/scratch/rdu230/d3tales/high_throughput/runfiles/06IVBN/gaussian/gas_phase/opt/Gau-3299001.inp" -scrdir="/scratch/rdu230/d3tales/high_throughput/runfiles/06IVBN/gaussian/gas_phase/opt/"
 Entering Link 1 = /mnt/gpfs3_amd/share/apps/amd/gaussian/g16-A.03/g16/l1.exe PID=   3299002.
  
 Copyright (c) 1988,1990,1992,1993,1995,1998,2003,2009,2016,
            Gaussian, Inc.  All Rights Reserved.
  
 This is part of the Gaussian(R) 16 program.  It is based on
 the Gaussian(R) 09 system (copyright 2009, Gaussian, Inc.),
 the Gaussian(R) 03 system (copyright 2003, Gaussian, Inc.),
 the Gaussian(R) 98 system (copyright 1998, Gaussian, Inc.),
 the Gaussian(R) 94 system (copyright 1995, Gaussian, Inc.),
 the Gaussian 92(TM) system (copyright 1992, Gaussian, Inc.),
 the Gaussian 90(TM) system (copyright 1990, Gaussian, Inc.),
 the Gaussian 88(TM) system (copyright 1988, Gaussian, Inc.),
 the Gaussian 86(TM) system (copyright 1986, Carnegie Mellon
 University), and the Gaussian 82(TM) system (copyright 1983,
 Carnegie Mellon University). Gaussian is a federally registered
 trademark of Gaussian, Inc.
  
 This software contains proprietary and confidential information,
 including trade secrets, belonging to Gaussian, Inc.
  
 This software is provided under written license and may be
 used, copied, transmitted, or stored only in accord with that
 written license.
  
 The following legend is applicable only to US Government
 contracts under FAR:
  
                    RESTRICTED RIGHTS LEGEND
  
 Use, reproduction and disclosure by the US Government is
 subject to restrictions as set forth in subparagraphs (a)
 and (c) of the Commercial Computer Software - Restricted
 Rights clause in FAR 52.227-19.
  
 Gaussian, Inc.
 340 Quinnipiac St., Bldg. 40, Wallingford CT 06492
  
  
 ---------------------------------------------------------------
 Warning -- This program may not be used in any manner that
 competes with the business of Gaussian, Inc. or will provide
 assistance to any competitor of Gaussian, Inc.  The licensee
 of this program is prohibited from giving any competitor of
 Gaussian, Inc. access to this program.  By using this program,
 the user acknowledges that Gaussian, Inc. is engaged in the
 business of creating and licensing software in the field of
 computational chemistry and represents and warrants to the
 licensee that it is not a competitor of Gaussian, Inc. and that
 it will not use this program in any manner prohibited above.
 ---------------------------------------------------------------
  

 Cite this work as:
 Gaussian 16, Revision A.03,
 M. J. Frisch, G. W. Trucks, H. B. Schlegel, G. E. Scuseria, 
 M. A. Robb, J. R. Cheeseman, G. Scalmani, V. Barone, 
 G. A. Petersson, H. Nakatsuji, X. Li, M. Caricato, A. V. Marenich, 
 J. Bloino, B. G. Janesko, R. Gomperts, B. Mennucci, H. P. Hratchian, 
 J. V. Ortiz, A. F. Izmaylov, J. L. Sonnenberg, D. Williams-Young, 
 F. Ding, F. Lipparini, F. Egidi, J. Goings, B. Peng, A. Petrone, 
 T. Henderson, D. Ranasinghe, V. G. Zakrzewski, J. Gao, N. Rega, 
 G. Zheng, W. Liang, M. Hada, M. Ehara, K. Toyota, R. Fukuda, 
 J. Hasegawa, M. Ishida, T. Nakajima, Y. Honda, O. Kitao, H. Nakai, 
 T. Vreven, K. Throssell, J. A. Montgomery, Jr., J. E. Peralta, 
 F. Ogliaro, M. J. Bearpark, J. J. Heyd, E. N. Brothers, K. N. Kudin, 
 V. N. Staroverov, T. A. Keith, R. Kobayashi, J. Normand, 
 K. Raghavachari, A. P. Rendell, J. C. Burant, S. S. Iyengar, 
 J. Tomasi, M. Cossi, J. M. Millam, M. Klene, C. Adamo, R. Cammi, 
 J. W. Ochterski, R. L. Martin, K. Morokuma, O. Farkas, 
 J. B. Foresman, and D. J. Fox, Gaussian, Inc., Wallingford CT, 2016.
 
 ******************************************
 Gaussian 16:  AM64L-G16RevA.03 25-Dec-2016
                11-May-2022 
 ******************************************
 %chk=/scratch/rdu230/d3tales/high_throughput/runfiles//06IVBN/gaussian/gas_phase
 /opt/opt_groundState.chk
 %mem=48GB
 %nprocshared=16
 Will use up to   16 processors via shared memory.
 ----------------------------------------------------------------------
 #P LC-wHPBE/Def2SVP iop(3/107=0225700000, 3/108=0225700000) opt scf(ma
 xcyc=512)
 ----------------------------------------------------------------------
 1/18=20,19=15,26=3,38=1/1,3;
 2/9=110,12=2,17=6,18=5,40=1/2;
 3/5=43,7=101,11=2,25=1,30=1,71=1,74=-71,107=225700000,108=225700000/1,2,3;
 4//1;
 5/5=2,7=512,38=5/2;
 6/7=2,8=2,9=2,10=2,28=1/1;
 7//1,2,3,16;
 1/18=20,19=15,26=3/3(2);
 2/9=110/2;
 99//99;
 2/9=110/2;
 3/5=43,7=101,11=2,25=1,30=1,71=1,74=-71,107=225700000,108=225700000/1,2,3;
 4/5=5,16=3,69=1/1;
 5/5=2,7=512,38=5/2;
 7//1,2,3,16;
 1/18=20,19=15,26=3/3(-5);
 2/9=110/2;
 6/7=2,8=2,9=2,10=2,19=2,28=1/1;
 99/9=1/99;
 Leave Link    1 at Wed May 11 05:52:38 2022, MaxMem=  6442450944 cpu:               4.0 elap:               0.3
 (Enter /mnt/gpfs3_amd/share/apps/amd/gaussian/g16-A.03/g16/l101.exe)
 ----------
 H13 C15 N2
 ----------
 Symbolic Z-matrix:
 Charge =  1 Multiplicity = 1
 N                     0.33376   4.15782   0.6451 
 C                     0.70776   3.01428  -0.09062 
 C                     1.468     2.52888  -1.15258 
 C                     0.66849   1.689    -0.35409 
 N                     0.24408   0.33995  -0.14314 
 C                    -1.14087   0.06512  -0.23486 
 C                    -1.85797   0.60207  -1.28606 
 C                    -3.22718   0.34413  -1.39705 
 C                    -3.88899  -0.44057  -0.47542 
 C                    -3.17532  -0.97341   0.56846 
 C                    -1.80596  -0.71674   0.6814 
 C                     1.16004  -0.71147   0.15058 
 C                     1.05086  -1.9283   -0.49474 
 C                     1.94335  -2.95253  -0.20842 
 C                     2.95757  -2.80922   0.71136 
 C                     3.06316  -1.59688   1.3516 
 C                     2.17231  -0.56602   1.06968 
 H                     0.40467   4.15651   1.67524 
 H                    -0.01024   4.99257   0.14381 
 H                     2.15671   2.69432  -1.97197 
 H                    -1.36581   1.22216  -2.02541 
 H                    -3.8064    0.75848  -2.21752 
 H                    -4.95653  -0.61677  -0.59876 
 H                    -3.69211  -1.58853   1.29163 
 H                    -1.2422   -1.13469   1.50163 
 H                     0.25247  -2.03606  -1.21649 
 H                     1.8342   -3.88965  -0.72653 
 H                     3.66219  -3.59588   0.94738 
 H                     3.84408  -1.40826   2.0954 
 H                     2.24587   0.3997    1.5708 
 
 Add atom      3 valence  3 ND=      2 dihedral       2      3      4     20
 ITRead=  0  0  0  0  0  0  0  0  0  0  0  0  0  0  0  0  0  0  0  0
 ITRead=  0  0  0  0  0  0  0  0  0  0
 MicOpt= -1 -1 -1 -1 -1 -1 -1 -1 -1 -1 -1 -1 -1 -1 -1 -1 -1 -1 -1 -1
 MicOpt= -1 -1 -1 -1 -1 -1 -1 -1 -1 -1
 NAtoms=     30 NQM=       30 NQMF=       0 NMMI=      0 NMMIF=      0
                NMic=       0 NMicF=      0.
                    Isotopes and Nuclear Properties:
 (Nuclear quadrupole moments (NQMom) in fm**2, nuclear magnetic moments (NMagM)
  in nuclear magnetons)

  Atom         1           2           3           4           5           6           7           8           9          10
 IAtWgt=          14          12          12          12          14          12          12          12          12          12
 AtmWgt=  14.0030740  12.0000000  12.0000000  12.0000000  14.0030740  12.0000000  12.0000000  12.0000000  12.0000000  12.0000000
 NucSpn=           2           0           0           0           2           0           0           0           0           0
 AtZEff=  -0.0000000  -0.0000000  -0.0000000  -0.0000000  -0.0000000  -0.0000000  -0.0000000  -0.0000000  -0.0000000  -0.0000000
 NQMom=    2.0440000   0.0000000   0.0000000   0.0000000   2.0440000   0.0000000   0.0000000   0.0000000   0.0000000   0.0000000
 NMagM=    0.4037610   0.0000000   0.0000000   0.0000000   0.4037610   0.0000000   0.0000000   0.0000000   0.0000000   0.0000000
 AtZNuc=   7.0000000   6.0000000   6.0000000   6.0000000   7.0000000   6.0000000   6.0000000   6.0000000   6.0000000   6.0000000

  Atom        11          12          13          14          15          16          17          18          19          20
 IAtWgt=          12          12          12          12          12          12          12           1           1           1
 AtmWgt=  12.0000000  12.0000000  12.0000000  12.0000000  12.0000000  12.0000000  12.0000000   1.0078250   1.0078250   1.0078250
 NucSpn=           0           0           0           0           0           0           0           1           1           1
 AtZEff=  -0.0000000  -0.0000000  -0.0000000  -0.0000000  -0.0000000  -0.0000000  -0.0000000  -0.0000000  -0.0000000  -0.0000000
 NQMom=    0.0000000   0.0000000   0.0000000   0.0000000   0.0000000   0.0000000   0.0000000   0.0000000   0.0000000   0.0000000
 NMagM=    0.0000000   0.0000000   0.0000000   0.0000000   0.0000000   0.0000000   0.0000000   2.7928460   2.7928460   2.7928460
 AtZNuc=   6.0000000   6.0000000   6.0000000   6.0000000   6.0000000   6.0000000   6.0000000   1.0000000   1.0000000   1.0000000

  Atom        21          22          23          24          25          26          27          28          29          30
 IAtWgt=           1           1           1           1           1           1           1           1           1           1
 AtmWgt=   1.0078250   1.0078250   1.0078250   1.0078250   1.0078250   1.0078250   1.0078250   1.0078250   1.0078250   1.0078250
 NucSpn=           1           1           1           1           1           1           1           1           1           1
 AtZEff=  -0.0000000  -0.0000000  -0.0000000  -0.0000000  -0.0000000  -0.0000000  -0.0000000  -0.0000000  -0.0000000  -0.0000000
 NQMom=    0.0000000   0.0000000   0.0000000   0.0000000   0.0000000   0.0000000   0.0000000   0.0000000   0.0000000   0.0000000
 NMagM=    2.7928460   2.7928460   2.7928460   2.7928460   2.7928460   2.7928460   2.7928460   2.7928460   2.7928460   2.7928460
 AtZNuc=   1.0000000   1.0000000   1.0000000   1.0000000   1.0000000   1.0000000   1.0000000   1.0000000   1.0000000   1.0000000
 Leave Link  101 at Wed May 11 05:52:38 2022, MaxMem=  6442450944 cpu:               2.3 elap:               0.2
 (Enter /mnt/gpfs3_amd/share/apps/amd/gaussian/g16-A.03/g16/l103.exe)

 GradGradGradGradGradGradGradGradGradGradGradGradGradGradGradGradGradGrad
 Berny optimization.
 Initialization pass.
                           ----------------------------
                           !    Initial Parameters    !
                           ! (Angstroms and Degrees)  !
 --------------------------                            --------------------------
 ! Name  Definition              Value          Derivative Info.                !
 --------------------------------------------------------------------------------
 ! R1    R(1,2)                  1.4103         estimate D2E/DX2                !
 ! R2    R(1,18)                 1.0326         estimate D2E/DX2                !
 ! R3    R(1,19)                 1.0327         estimate D2E/DX2                !
 ! R4    R(2,3)                  1.3933         estimate D2E/DX2                !
 ! R5    R(2,4)                  1.3518         estimate D2E/DX2                !
 ! R6    R(3,4)                  1.4079         estimate D2E/DX2                !
 ! R7    R(3,20)                 1.0831         estimate D2E/DX2                !
 ! R8    R(4,5)                  1.4299         estimate D2E/DX2                !
 ! R9    R(5,6)                  1.4149         estimate D2E/DX2                !
 ! R10   R(5,12)                 1.425          estimate D2E/DX2                !
 ! R11   R(6,7)                  1.3811         estimate D2E/DX2                !
 ! R12   R(6,11)                 1.3759         estimate D2E/DX2                !
 ! R13   R(7,8)                  1.3977         estimate D2E/DX2                !
 ! R14   R(7,21)                 1.0832         estimate D2E/DX2                !
 ! R15   R(8,9)                  1.3795         estimate D2E/DX2                !
 ! R16   R(8,22)                 1.0864         estimate D2E/DX2                !
 ! R17   R(9,10)                 1.3722         estimate D2E/DX2                !
 ! R18   R(9,23)                 1.089          estimate D2E/DX2                !
 ! R19   R(10,11)                1.3978         estimate D2E/DX2                !
 ! R20   R(10,24)                1.0809         estimate D2E/DX2                !
 ! R21   R(11,25)                1.0795         estimate D2E/DX2                !
 ! R22   R(12,13)                1.3817         estimate D2E/DX2                !
 ! R23   R(12,17)                1.375          estimate D2E/DX2                !
 ! R24   R(13,14)                1.3884         estimate D2E/DX2                !
 ! R25   R(13,26)                1.0817         estimate D2E/DX2                !
 ! R26   R(14,15)                1.3767         estimate D2E/DX2                !
 ! R27   R(14,27)                1.0764         estimate D2E/DX2                !
 ! R28   R(15,16)                1.3751         estimate D2E/DX2                !
 ! R29   R(15,28)                1.0821         estimate D2E/DX2                !
 ! R30   R(16,17)                1.3913         estimate D2E/DX2                !
 ! R31   R(16,29)                1.0948         estimate D2E/DX2                !
 ! R32   R(17,30)                1.0905         estimate D2E/DX2                !
 ! A1    A(2,1,18)             120.0809         estimate D2E/DX2                !
 ! A2    A(2,1,19)             119.3772         estimate D2E/DX2                !
 ! A3    A(18,1,19)            120.5419         estimate D2E/DX2                !
 ! A4    A(1,2,3)              145.5691         estimate D2E/DX2                !
 ! A5    A(1,2,4)              152.741          estimate D2E/DX2                !
 ! A6    A(2,3,20)             150.4994         estimate D2E/DX2                !
 ! A7    A(4,3,20)             151.797          estimate D2E/DX2                !
 ! A8    A(2,4,5)              154.802          estimate D2E/DX2                !
 ! A9    A(3,4,5)              144.5915         estimate D2E/DX2                !
 ! A10   A(4,5,6)              117.6596         estimate D2E/DX2                !
 ! A11   A(4,5,12)             122.3936         estimate D2E/DX2                !
 ! A12   A(6,5,12)             119.9468         estimate D2E/DX2                !
 ! A13   A(5,6,7)              118.8175         estimate D2E/DX2                !
 ! A14   A(5,6,11)             122.7069         estimate D2E/DX2                !
 ! A15   A(7,6,11)             118.4756         estimate D2E/DX2                !
 ! A16   A(6,7,8)              119.8222         estimate D2E/DX2                !
 ! A17   A(6,7,21)             120.4072         estimate D2E/DX2                !
 ! A18   A(8,7,21)             119.7706         estimate D2E/DX2                !
 ! A19   A(7,8,9)              121.4577         estimate D2E/DX2                !
 ! A20   A(7,8,22)             120.7872         estimate D2E/DX2                !
 ! A21   A(9,8,22)             117.7551         estimate D2E/DX2                !
 ! A22   A(8,9,10)             118.6588         estimate D2E/DX2                !
 ! A23   A(8,9,23)             119.1208         estimate D2E/DX2                !
 ! A24   A(10,9,23)            122.2204         estimate D2E/DX2                !
 ! A25   A(9,10,11)            119.9788         estimate D2E/DX2                !
 ! A26   A(9,10,24)            118.7681         estimate D2E/DX2                !
 ! A27   A(11,10,24)           121.2531         estimate D2E/DX2                !
 ! A28   A(6,11,10)            121.6068         estimate D2E/DX2                !
 ! A29   A(6,11,25)            118.2654         estimate D2E/DX2                !
 ! A30   A(10,11,25)           120.1277         estimate D2E/DX2                !
 ! A31   A(5,12,13)            120.1809         estimate D2E/DX2                !
 ! A32   A(5,12,17)            122.2039         estimate D2E/DX2                !
 ! A33   A(13,12,17)           117.6151         estimate D2E/DX2                !
 ! A34   A(12,13,14)           120.1719         estimate D2E/DX2                !
 ! A35   A(12,13,26)           117.2392         estimate D2E/DX2                !
 ! A36   A(14,13,26)           122.5889         estimate D2E/DX2                !
 ! A37   A(13,14,15)           122.3155         estimate D2E/DX2                !
 ! A38   A(13,14,27)           118.5441         estimate D2E/DX2                !
 ! A39   A(15,14,27)           119.1404         estimate D2E/DX2                !
 ! A40   A(14,15,16)           117.3509         estimate D2E/DX2                !
 ! A41   A(14,15,28)           123.3506         estimate D2E/DX2                !
 ! A42   A(16,15,28)           119.2985         estimate D2E/DX2                !
 ! A43   A(15,16,17)           120.6459         estimate D2E/DX2                !
 ! A44   A(15,16,29)           121.5331         estimate D2E/DX2                !
 ! A45   A(17,16,29)           117.8209         estimate D2E/DX2                !
 ! A46   A(12,17,16)           121.9006         estimate D2E/DX2                !
 ! A47   A(12,17,30)           116.7769         estimate D2E/DX2                !
 ! A48   A(16,17,30)           121.3225         estimate D2E/DX2                !
 ! D1    D(18,1,2,3)          -129.1751         estimate D2E/DX2                !
 ! D2    D(18,1,2,4)            50.8249         estimate D2E/DX2                !
 ! D3    D(19,1,2,3)            50.8253         estimate D2E/DX2                !
 ! D4    D(19,1,2,4)          -129.1748         estimate D2E/DX2                !
 ! D5    D(1,2,3,20)             0.0            estimate D2E/DX2                !
 ! D6    D(1,2,4,5)              0.0            estimate D2E/DX2                !
 ! D7    D(2,3,4,20)          -180.0            estimate D2E/DX2                !
 ! D8    D(20,3,4,5)             0.0            estimate D2E/DX2                !
 ! D9    D(2,4,5,6)             60.0004         estimate D2E/DX2                !
 ! D10   D(2,4,5,12)          -119.9996         estimate D2E/DX2                !
 ! D11   D(3,4,5,6)           -119.9996         estimate D2E/DX2                !
 ! D12   D(3,4,5,12)            60.0003         estimate D2E/DX2                !
 ! D13   D(4,5,6,7)             45.0            estimate D2E/DX2                !
 ! D14   D(4,5,6,11)          -134.9998         estimate D2E/DX2                !
 ! D15   D(12,5,6,7)          -134.9999         estimate D2E/DX2                !
 ! D16   D(12,5,6,11)           45.0002         estimate D2E/DX2                !
 ! D17   D(4,5,12,13)         -134.9997         estimate D2E/DX2                !
 ! D18   D(4,5,12,17)           45.0006         estimate D2E/DX2                !
 ! D19   D(6,5,12,13)           45.0002         estimate D2E/DX2                !
 ! D20   D(6,5,12,17)         -134.9994         estimate D2E/DX2                !
 ! D21   D(5,6,7,8)           -179.9998         estimate D2E/DX2                !
 ! D22   D(5,6,7,21)            -0.0001         estimate D2E/DX2                !
 ! D23   D(11,6,7,8)             0.0            estimate D2E/DX2                !
 ! D24   D(11,6,7,21)          179.9998         estimate D2E/DX2                !
 ! D25   D(5,6,11,10)          179.9998         estimate D2E/DX2                !
 ! D26   D(5,6,11,25)            0.0            estimate D2E/DX2                !
 ! D27   D(7,6,11,10)            0.0            estimate D2E/DX2                !
 ! D28   D(7,6,11,25)         -179.9999         estimate D2E/DX2                !
 ! D29   D(6,7,8,9)              0.0            estimate D2E/DX2                !
 ! D30   D(6,7,8,22)           179.9999         estimate D2E/DX2                !
 ! D31   D(21,7,8,9)          -179.9997         estimate D2E/DX2                !
 ! D32   D(21,7,8,22)            0.0002         estimate D2E/DX2                !
 ! D33   D(7,8,9,10)             0.0            estimate D2E/DX2                !
 ! D34   D(7,8,9,23)           179.9995         estimate D2E/DX2                !
 ! D35   D(22,8,9,10)         -180.0            estimate D2E/DX2                !
 ! D36   D(22,8,9,23)           -0.0004         estimate D2E/DX2                !
 ! D37   D(8,9,10,11)            0.0            estimate D2E/DX2                !
 ! D38   D(8,9,10,24)         -179.9999         estimate D2E/DX2                !
 ! D39   D(23,9,10,11)        -179.9995         estimate D2E/DX2                !
 ! D40   D(23,9,10,24)           0.0006         estimate D2E/DX2                !
 ! D41   D(9,10,11,6)            0.0            estimate D2E/DX2                !
 ! D42   D(9,10,11,25)         179.9998         estimate D2E/DX2                !
 ! D43   D(24,10,11,6)         179.9999         estimate D2E/DX2                !
 ! D44   D(24,10,11,25)         -0.0003         estimate D2E/DX2                !
 ! D45   D(5,12,13,14)        -179.9996         estimate D2E/DX2                !
 ! D46   D(5,12,13,26)           0.0004         estimate D2E/DX2                !
 ! D47   D(17,12,13,14)          0.0001         estimate D2E/DX2                !
 ! D48   D(17,12,13,26)       -180.0            estimate D2E/DX2                !
 ! D49   D(5,12,17,16)         179.9997         estimate D2E/DX2                !
 ! D50   D(5,12,17,30)          -0.0003         estimate D2E/DX2                !
 ! D51   D(13,12,17,16)          0.0            estimate D2E/DX2                !
 ! D52   D(13,12,17,30)       -179.9999         estimate D2E/DX2                !
 ! D53   D(12,13,14,15)         -0.0001         estimate D2E/DX2                !
 ! D54   D(12,13,14,27)       -179.9996         estimate D2E/DX2                !
 ! D55   D(26,13,14,15)        179.9999         estimate D2E/DX2                !
 ! D56   D(26,13,14,27)          0.0004         estimate D2E/DX2                !
 ! D57   D(13,14,15,16)          0.0001         estimate D2E/DX2                !
 ! D58   D(13,14,15,28)       -179.9998         estimate D2E/DX2                !
 ! D59   D(27,14,15,16)        179.9996         estimate D2E/DX2                !
 ! D60   D(27,14,15,28)         -0.0003         estimate D2E/DX2                !
 ! D61   D(14,15,16,17)         -0.0001         estimate D2E/DX2                !
 ! D62   D(14,15,16,29)        179.9994         estimate D2E/DX2                !
 ! D63   D(28,15,16,17)        179.9998         estimate D2E/DX2                !
 ! D64   D(28,15,16,29)         -0.0007         estimate D2E/DX2                !
 ! D65   D(15,16,17,12)          0.0            estimate D2E/DX2                !
 ! D66   D(15,16,17,30)        179.9999         estimate D2E/DX2                !
 ! D67   D(29,16,17,12)       -179.9995         estimate D2E/DX2                !
 ! D68   D(29,16,17,30)          0.0004         estimate D2E/DX2                !
 --------------------------------------------------------------------------------
 Trust Radius=3.00D-01 FncErr=1.00D-07 GrdErr=1.00D-06 EigMax=2.50D+02 EigMin=1.00D-04
 Number of steps in this run=    158 maximum allowed number of steps=    180.
 GradGradGradGradGradGradGradGradGradGradGradGradGradGradGradGradGradGrad

 Leave Link  103 at Wed May 11 05:52:38 2022, MaxMem=  6442450944 cpu:               0.1 elap:               0.0
 (Enter /mnt/gpfs3_amd/share/apps/amd/gaussian/g16-A.03/g16/l202.exe)
                          Input orientation:                          
 ---------------------------------------------------------------------
 Center     Atomic      Atomic             Coordinates (Angstroms)
 Number     Number       Type             X           Y           Z
 ---------------------------------------------------------------------
      1          7           0        0.333762    4.157815    0.645095
      2          6           0        0.707760    3.014278   -0.090620
      3          6           0        1.467998    2.528881   -1.152582
      4          6           0        0.668485    1.689002   -0.354088
      5          7           0        0.244077    0.339947   -0.143144
      6          6           0       -1.140873    0.065116   -0.234857
      7          6           0       -1.857971    0.602073   -1.286055
      8          6           0       -3.227183    0.344125   -1.397051
      9          6           0       -3.888993   -0.440571   -0.475421
     10          6           0       -3.175319   -0.973413    0.568464
     11          6           0       -1.805960   -0.716742    0.681401
     12          6           0        1.160043   -0.711465    0.150577
     13          6           0        1.050865   -1.928304   -0.494735
     14          6           0        1.943352   -2.952527   -0.208423
     15          6           0        2.957570   -2.809216    0.711355
     16          6           0        3.063161   -1.596884    1.351595
     17          6           0        2.172311   -0.566018    1.069685
     18          1           0        0.404668    4.156511    1.675244
     19          1           0       -0.010236    4.992570    0.143809
     20          1           0        2.156712    2.694321   -1.971971
     21          1           0       -1.365805    1.222156   -2.025413
     22          1           0       -3.806399    0.758476   -2.217515
     23          1           0       -4.956527   -0.616774   -0.598758
     24          1           0       -3.692109   -1.588525    1.291629
     25          1           0       -1.242201   -1.134689    1.501629
     26          1           0        0.252470   -2.036058   -1.216488
     27          1           0        1.834199   -3.889648   -0.726531
     28          1           0        3.662191   -3.595875    0.947383
     29          1           0        3.844079   -1.408261    2.095404
     30          1           0        2.245873    0.399700    1.570799
 ---------------------------------------------------------------------
                    Distance matrix (angstroms):
                    1          2          3          4          5
     1  N    0.000000
     2  C    1.410258   0.000000
     3  C    2.677977   1.393318   0.000000
     4  C    2.684296   1.351782   1.407910   0.000000
     5  N    3.899420   2.714739   2.703402   1.429884   0.000000
     6  C    4.438361   3.483648   3.703858   2.434132   1.414931
     7  C    4.601775   3.718975   3.846099   2.903955   2.406982
     8  C    5.603117   4.931557   5.184366   4.251199   3.690792
     9  C    6.342899   5.763175   6.162268   5.031939   4.219228
    10  C    6.216834   5.604853   6.065349   4.765961   3.731430
    11  C    5.323630   4.564572   4.961488   3.603154   2.449310
    12  C    4.963585   3.760837   3.506123   2.501711   1.425038
    13  C    6.233321   4.970930   4.524739   3.640178   2.432999
    14  C    7.340043   6.094533   5.582404   4.815630   3.705696
    15  C    7.445017   6.294274   5.847082   5.158395   4.243871
    16  C    6.408223   5.375008   5.083049   4.409181   3.732666
    17  C    5.086761   4.038532   3.874652   3.061656   2.451492
    18  H    1.032587   2.124814   3.431683   3.205681   4.230660
    19  H    1.032685   2.117573   3.152074   3.409124   4.668396
    20  H    3.509130   2.396104   1.083095   2.417236   3.542013
    21  H    4.317202   3.354817   3.240340   2.673875   2.629249
    22  H    6.073794   5.476309   5.664599   4.935871   4.569960
    23  H    7.234019   6.747362   7.174705   6.084178   5.307465
    24  H    7.045997   6.515770   7.039453   5.697837   4.612064
    25  H    5.588194   4.852992   5.273686   3.881705   2.662490
    26  H    6.468088   5.194301   4.724432   3.846151   2.607209
    27  H    8.300261   7.024062   6.443069   5.711299   4.556128
    28  H    8.443313   7.314386   6.836444   6.211765   5.325734
    29  H    6.738466   5.845857   5.629943   5.067292   4.585558
    30  H    4.317004   3.458630   3.543347   2.802792   2.635974
                    6          7          8          9         10
     6  C    0.000000
     7  C    1.381148   0.000000
     8  C    2.404419   1.397712   0.000000
     9  C    2.804595   2.422661   1.379544   0.000000
    10  C    2.421330   2.767093   2.366822   1.372205   0.000000
    11  C    1.375926   2.369148   2.732266   2.398653   1.397776
    12  C    2.458831   3.591337   4.770448   5.094902   4.363326
    13  C    2.974050   3.935775   4.927454   5.159062   4.461260
    14  C    4.315010   5.314746   6.246214   6.355900   5.542674
    15  C    5.094540   6.230247   7.255350   7.341277   6.403352
    16  C    4.790926   6.000846   7.133793   7.280624   6.318278
    17  C    3.616262   4.812185   6.005638   6.256396   5.386496
    18  H    4.772494   5.150035   6.096198   6.647860   6.352747
    19  H    5.069668   4.973439   5.859269   6.704269   6.766907
    20  H    4.561179   4.578828   5.902566   6.972644   6.952455
    21  H    2.143695   1.083227   2.151861   3.396117   3.850073
    22  H    3.393628   2.165283   1.086434   2.116466   3.340566
    23  H    3.893150   3.399855   2.133361   1.088985   2.159236
    24  H    3.401984   3.848017   3.343694   2.116371   1.080927
    25  H    2.113098   3.341661   3.811744   3.375801   2.152615
    26  H    2.705538   3.379132   4.219699   4.499608   4.008117
    27  H    4.973224   5.841296   6.632648   6.686861   5.939420
    28  H    6.153858   7.285822   8.275472   8.306666   7.332969
    29  H    5.696552   6.927415   8.079037   8.206459   7.196707
    30  H    3.852582   5.004409   6.226200   6.521476   5.681500
                   11         12         13         14         15
    11  C    0.000000
    12  C    3.013134   0.000000
    13  C    3.318528   1.381682   0.000000
    14  C    4.455094   2.401002   1.388359   0.000000
    15  C    5.202938   2.818889   2.422020   1.376651   0.000000
    16  C    4.993210   2.418319   2.751020   2.350616   1.375066
    17  C    4.000015   1.374991   2.358151   2.716875   2.403533
    18  H    5.442719   5.156781   6.492407   7.513599   7.481159
    19  H    6.009149   5.822853   7.030802   8.189331   8.366472
    20  H    5.863318   4.134965   4.977327   5.919672   6.174992
    21  H    3.358557   3.854054   4.255428   5.628495   6.514095
    22  H    3.818604   5.695097   5.812037   7.132155   8.188894
    23  H    3.402187   6.163027   6.149772   7.294959   8.316016
    24  H    2.165627   5.061088   5.079601   5.989080   6.785649
    25  H    1.079480   2.788411   3.142204   4.046796   4.589842
    26  H    3.095111   2.108815   1.081653   2.171449   3.410560
    27  H    5.029947   3.365212   2.124667   1.076358   2.120569
    28  H    6.185534   3.900701   3.417531   2.168915   1.082142
    29  H    5.865198   3.387023   3.844647   3.362312   2.159668
    30  H    4.295908   2.104933   3.333778   3.807174   3.397396
                   16         17         18         19         20
    16  C    0.000000
    17  C    1.391320   0.000000
    18  H    6.346171   5.078734   0.000000
    19  H    7.370578   6.043067   1.793442   0.000000
    20  H    5.502925   4.458893   4.302306   3.801860   0.000000
    21  H    6.242348   5.029459   5.043796   4.556217   3.818148
    22  H    8.091793   6.950176   6.665831   6.157455   6.274271
    23  H    8.311431   7.321653   7.529791   7.515447   7.965377
    24  H    6.755541   5.957030   7.066554   7.627876   7.950004
    25  H    4.332699   3.488389   5.544287   6.395679   6.187069
    26  H    3.832481   3.327671   6.836168   7.163870   5.154937
    27  H    3.329523   3.793050   8.517791   9.113354   6.708486
    28  H    2.125603   3.378570   8.440422   9.375171   7.096172
    29  H    1.094835   2.134545   6.555362   7.722377   6.018465
    30  H    2.168492   1.090476   4.185042   5.312324   4.221902
                   21         22         23         24         25
    21  H    0.000000
    22  H    2.491666   0.000000
    23  H    4.279053   2.415467   0.000000
    24  H    4.930962   4.223218   2.473179   0.000000
    25  H    4.243822   4.898083   4.298381   2.500423   0.000000
    26  H    3.726813   5.028508   5.434115   4.695811   3.230274
    27  H    6.169089   7.459520   7.539363   6.317295   4.692412
    28  H    7.571769   9.206345   9.249210   7.631100   5.515223
    29  H    7.144447   9.045763   9.237728   7.581074   5.128124
    30  H    5.162692   7.149129   7.590439   6.268222   3.811272
                   26         27         28         29         30
    26  H    0.000000
    27  H    2.485502   0.000000
    28  H    4.329153   2.495966   0.000000
    29  H    4.925689   4.261481   2.477234   0.000000
    30  H    4.204229   4.883207   4.284766   2.469453   0.000000
 Stoichiometry    C15H13N2(1+)
 Framework group  C1[X(C15H13N2)]
 Deg. of freedom    84
 Full point group                 C1      NOp   1
 Largest Abelian subgroup         C1      NOp   1
 Largest concise Abelian subgroup C1      NOp   1
                         Standard orientation:                         
 ---------------------------------------------------------------------
 Center     Atomic      Atomic             Coordinates (Angstroms)
 Number     Number       Type             X           Y           Z
 ---------------------------------------------------------------------
      1          7           0       -1.701913    3.713558    0.897606
      2          6           0       -0.944687    2.899855    0.029663
      3          6           0       -0.254000    2.840005   -1.178933
      4          6           0       -0.357327    1.732423   -0.315917
      5          7           0        0.004562    0.361546   -0.130713
      6          6           0       -1.041632   -0.582303   -0.001645
      7          6           0       -2.110996   -0.514170   -0.873073
      8          6           0       -3.155989   -1.436013   -0.764471
      9          6           0       -3.148366   -2.422652    0.199701
     10          6           0       -2.085313   -2.489189    1.064824
     11          6           0       -1.039194   -1.568316    0.958014
     12          6           0        1.361889   -0.068789   -0.074069
     13          6           0        1.765258   -1.188990   -0.775130
     14          6           0        3.087694   -1.608085   -0.719803
     15          6           0        4.040057   -0.943335    0.019306
     16          6           0        3.635003    0.171023    0.715684
     17          6           0        2.311405    0.596788    0.664869
     18          1           0       -1.451803    3.776814    1.897446
     19          1           0       -2.505699    4.242897    0.523218
     20          1           0        0.092486    3.310365   -2.090966
     21          1           0       -2.145042    0.249508   -1.640548
     22          1           0       -4.004698   -1.396852   -1.441597
     23          1           0       -3.982465   -3.120964    0.249978
     24          1           0       -2.077525   -3.261567    1.820981
     25          1           0       -0.201750   -1.618445    1.637316
     26          1           0        1.013425   -1.707865   -1.354343
     27          1           0        3.373304   -2.484124   -1.276157
     28          1           0        5.074873   -1.255038    0.074346
     29          1           0        4.335335    0.751186    1.325282
     30          1           0        1.978214    1.478849    1.212673
 ---------------------------------------------------------------------
 Rotational constants (GHZ):           0.5601950           0.4046814           0.2648941
 Leave Link  202 at Wed May 11 05:52:38 2022, MaxMem=  6442450944 cpu:               0.1 elap:               0.0
 (Enter /mnt/gpfs3_amd/share/apps/amd/gaussian/g16-A.03/g16/l301.exe)
 Standard basis: def2SVP (5D, 7F)
 Ernie: Thresh=  0.10000D-02 Tol=  0.10000D-05 Strict=F.
 There are   320 symmetry adapted cartesian basis functions of A   symmetry.
 There are   303 symmetry adapted basis functions of A   symmetry.
   303 basis functions,   516 primitive gaussians,   320 cartesian basis functions
    58 alpha electrons       58 beta electrons
       nuclear repulsion energy      1076.6785854109 Hartrees.
 IExCor=33909 DFT=T Ex+Corr=LC-wHPBE ExCW=0 ScaHFX=  1.000000
 ScaDFX=  1.000000  1.000000  1.000000  1.000000 ScalE2=  1.000000  1.000000
 IRadAn=      5 IRanWt=     -1 IRanGd=            0 ICorTp=0 IEmpDi=  4
 HFx  wShort=  0.000000 wLong=  0.225700 cFull=  0.000000 cShort=  0.000000 cLong=  1.000000
 DFx  wShort=  0.000000 wLong=  0.225700 cFull=  0.000000 cShort=  1.000000 cLong=  0.000000
 NAtoms=   30 NActive=   30 NUniq=   30 SFac= 1.00D+00 NAtFMM=   60 NAOKFM=F Big=F
 Integral buffers will be    131072 words long.
 Raffenetti 2 integral format.
 Two-electron integral symmetry is turned on.
 Leave Link  301 at Wed May 11 05:52:38 2022, MaxMem=  6442450944 cpu:               0.3 elap:               0.0
 (Enter /mnt/gpfs3_amd/share/apps/amd/gaussian/g16-A.03/g16/l302.exe)
 NPDir=0 NMtPBC=     1 NCelOv=     1 NCel=       1 NClECP=     1 NCelD=      1
         NCelK=      1 NCelE2=     1 NClLst=     1 CellRange=     0.0.
 One-electron integrals computed using PRISM.
 One-electron integral symmetry used in STVInt
   1 Symmetry operations used in ECPInt.
 ECPInt:  NShTT=   10011 NPrTT=   36575 LenC2=    9378 LenP2D=   24388.
 LDataN:  DoStor=T MaxTD1= 4 Len=   56
 NBasis=   303 RedAO= T EigKep=  2.29D-04  NBF=   303
 NBsUse=   303 1.00D-06 EigRej= -1.00D+00 NBFU=   303
 Precomputing XC quadrature grid using
 IXCGrd= 4 IRadAn=           5 IRanWt=          -1 IRanGd=           0 AccXCQ= 0.00D+00.
 Generated NRdTot=       0 NPtTot=           0 NUsed=           0 NTot=          32
 NSgBfM=   319   319   319   319   319 MxSgAt=    30 MxSgA2=    30.
 Leave Link  302 at Wed May 11 05:52:39 2022, MaxMem=  6442450944 cpu:               9.5 elap:               0.6
 (Enter /mnt/gpfs3_amd/share/apps/amd/gaussian/g16-A.03/g16/l303.exe)
 DipDrv:  MaxL=1.
 Leave Link  303 at Wed May 11 05:52:39 2022, MaxMem=  6442450944 cpu:               0.6 elap:               0.1
 (Enter /mnt/gpfs3_amd/share/apps/amd/gaussian/g16-A.03/g16/l401.exe)
 ExpMin= 1.22D-01 ExpMax= 1.71D+03 ExpMxC= 2.58D+02 IAcc=3 IRadAn=         5 AccDes= 0.00D+00
 Harris functional with IExCor=33909 and IRadAn=       5 diagonalized for initial guess.
 HarFok:  IExCor=33909 AccDes= 0.00D+00 IRadAn=         5 IDoV= 1 UseB2=F ITyADJ=14
 ICtDFT=  3500011 ScaDFX=  1.000000  1.000000  1.000000  1.000000
 FoFCou: FMM=F IPFlag=           0 FMFlag=      100000 FMFlg1=           0
         NFxFlg=           0 DoJE=T BraDBF=F KetDBF=T FulRan=T
         wScrn=  0.000000 ICntrl=       500 IOpCl=  0 I1Cent=   200000004 NGrid=           0
         NMat0=    1 NMatS0=      1 NMatT0=    0 NMatD0=    1 NMtDS0=    0 NMtDT0=    0
 Petite list used in FoFCou.
 Harris En= -673.656746063366    
 JPrj=0 DoOrth=F DoCkMO=F.
 Leave Link  401 at Wed May 11 05:52:42 2022, MaxMem=  6442450944 cpu:              45.7 elap:               2.9
 (Enter /mnt/gpfs3_amd/share/apps/amd/gaussian/g16-A.03/g16/l502.exe)
 Integral symmetry usage will be decided dynamically.
 Closed shell SCF:
 Using DIIS extrapolation, IDIIS=  1040.
 NGot=  6442450944 LenX=  6442237618 LenY=  6442134777
 Requested convergence on RMS density matrix=1.00D-08 within 512 cycles.
 Requested convergence on MAX density matrix=1.00D-06.
 Requested convergence on             energy=1.00D-06.
 No special actions if energy rises.
 Fock matrices will be formed incrementally for  20 cycles.
 Integral accuracy reduced to 1.0D-05 until final iterations.

 Cycle   1  Pass 0  IDiag  1:
 FoFJK:  IHMeth= 1 ICntrl=       0 DoSepK=T KAlg= 0 I1Cent=           0 FoldK=F
 IRaf=         1 NMat=       1 IRICut=       1 DoRegI=T DoRafI=F ISym2E= 0 IDoP0=0 IntGTp=1.
 FoFCou: FMM=F IPFlag=           0 FMFlag=      100000 FMFlg1=           0
         NFxFlg=           0 DoJE=T BraDBF=F KetDBF=F FulRan=T
         wScrn=  0.000000 ICntrl=       500 IOpCl=  0 I1Cent=           0 NGrid=           0
         NMat0=    1 NMatS0=      1 NMatT0=    0 NMatD0=    1 NMtDS0=    0 NMtDT0=    0
 Symmetry not used in FoFCou.
 E= -687.220796841996    
 DIIS: error= 2.18D-02 at cycle   1 NSaved=   1.
 NSaved= 1 IEnMin= 1 EnMin= -687.220796841996     IErMin= 1 ErrMin= 2.18D-02
 ErrMax= 2.18D-02  0.00D+00 EMaxC= 1.00D-01 BMatC= 2.14D-01 BMatP= 2.14D-01
 IDIUse=3 WtCom= 7.82D-01 WtEn= 2.18D-01
 Coeff-Com:  0.100D+01
 Coeff-En:   0.100D+01
 Coeff:      0.100D+01
 Gap=     0.416 Goal=   None    Shift=    0.000
 GapD=    0.416 DampG=2.000 DampE=0.500 DampFc=1.0000 IDamp=-1.
 RMSDP=4.55D-03 MaxDP=1.07D-01              OVMax= 1.84D-01

 Cycle   2  Pass 0  IDiag  1:
 RMSU=  4.31D-03    CP:  9.31D-01
 E= -687.220327220769     Delta-E=        0.000469621228 Rises=F Damp=F
 DIIS: error= 1.86D-02 at cycle   2 NSaved=   2.
 NSaved= 2 IEnMin= 1 EnMin= -687.220796841996     IErMin= 2 ErrMin= 1.86D-02
 ErrMax= 1.86D-02  0.00D+00 EMaxC= 1.00D-01 BMatC= 2.54D-01 BMatP= 2.14D-01
 IDIUse=2 WtCom= 0.00D+00 WtEn= 1.00D+00
 Coeff-En:   0.501D+00 0.499D+00
 Coeff:      0.501D+00 0.499D+00
 Gap=     0.267 Goal=   None    Shift=    0.000
 RMSDP=2.22D-03 MaxDP=5.84D-02 DE= 4.70D-04 OVMax= 1.20D-01

 Cycle   3  Pass 0  IDiag  1:
 RMSU=  1.22D-03    CP:  9.46D-01  5.77D-01
 E= -687.458715698059     Delta-E=       -0.238388477290 Rises=F Damp=F
 DIIS: error= 5.96D-03 at cycle   3 NSaved=   3.
 NSaved= 3 IEnMin= 3 EnMin= -687.458715698059     IErMin= 3 ErrMin= 5.96D-03
 ErrMax= 5.96D-03  0.00D+00 EMaxC= 1.00D-01 BMatC= 1.21D-02 BMatP= 2.14D-01
 IDIUse=3 WtCom= 9.40D-01 WtEn= 5.96D-02
 Coeff-Com:  0.187D+00 0.236D+00 0.577D+00
 Coeff-En:   0.000D+00 0.000D+00 0.100D+01
 Coeff:      0.176D+00 0.222D+00 0.602D+00
 Gap=     0.255 Goal=   None    Shift=    0.000
 RMSDP=5.47D-04 MaxDP=2.32D-02 DE=-2.38D-01 OVMax= 3.87D-02

 Cycle   4  Pass 0  IDiag  1:
 RMSU=  3.83D-04    CP:  9.46D-01  6.27D-01  7.33D-01
 E= -687.469878088114     Delta-E=       -0.011162390055 Rises=F Damp=F
 DIIS: error= 2.01D-03 at cycle   4 NSaved=   4.
 NSaved= 4 IEnMin= 4 EnMin= -687.469878088114     IErMin= 4 ErrMin= 2.01D-03
 ErrMax= 2.01D-03  0.00D+00 EMaxC= 1.00D-01 BMatC= 1.39D-03 BMatP= 1.21D-02
 IDIUse=3 WtCom= 9.80D-01 WtEn= 2.01D-02
 Coeff-Com:  0.196D-01 0.312D-01 0.275D+00 0.674D+00
 Coeff-En:   0.000D+00 0.000D+00 0.405D-01 0.960D+00
 Coeff:      0.192D-01 0.306D-01 0.270D+00 0.680D+00
 Gap=     0.245 Goal=   None    Shift=    0.000
 RMSDP=1.87D-04 MaxDP=6.82D-03 DE=-1.12D-02 OVMax= 1.10D-02

 Cycle   5  Pass 0  IDiag  1:
 RMSU=  1.11D-04    CP:  9.45D-01  6.23D-01  8.34D-01  7.87D-01
 E= -687.471326389557     Delta-E=       -0.001448301443 Rises=F Damp=F
 DIIS: error= 4.38D-04 at cycle   5 NSaved=   5.
 NSaved= 5 IEnMin= 5 EnMin= -687.471326389557     IErMin= 5 ErrMin= 4.38D-04
 ErrMax= 4.38D-04  0.00D+00 EMaxC= 1.00D-01 BMatC= 9.65D-05 BMatP= 1.39D-03
 IDIUse=3 WtCom= 9.96D-01 WtEn= 4.38D-03
 Coeff-Com: -0.657D-02-0.786D-02 0.655D-01 0.292D+00 0.657D+00
 Coeff-En:   0.000D+00 0.000D+00 0.000D+00 0.000D+00 0.100D+01
 Coeff:     -0.654D-02-0.783D-02 0.652D-01 0.290D+00 0.659D+00
 Gap=     0.249 Goal=   None    Shift=    0.000
 RMSDP=5.42D-05 MaxDP=2.03D-03 DE=-1.45D-03 OVMax= 4.18D-03

 Cycle   6  Pass 0  IDiag  1:
 RMSU=  4.56D-05    CP:  9.45D-01  6.21D-01  8.40D-01  8.55D-01  9.91D-01
 E= -687.471448877750     Delta-E=       -0.000122488193 Rises=F Damp=F
 DIIS: error= 1.52D-04 at cycle   6 NSaved=   6.
 NSaved= 6 IEnMin= 6 EnMin= -687.471448877750     IErMin= 6 ErrMin= 1.52D-04
 ErrMax= 1.52D-04  0.00D+00 EMaxC= 1.00D-01 BMatC= 1.33D-05 BMatP= 9.65D-05
 IDIUse=3 WtCom= 9.98D-01 WtEn= 1.52D-03
 Coeff-Com: -0.617D-02-0.936D-02-0.119D-01 0.343D-01 0.268D+00 0.725D+00
 Coeff-En:   0.000D+00 0.000D+00 0.000D+00 0.000D+00 0.000D+00 0.100D+01
 Coeff:     -0.616D-02-0.935D-02-0.119D-01 0.342D-01 0.267D+00 0.726D+00
 Gap=     0.250 Goal=   None    Shift=    0.000
 RMSDP=2.61D-05 MaxDP=7.46D-04 DE=-1.22D-04 OVMax= 2.80D-03

 Cycle   7  Pass 0  IDiag  1:
 RMSU=  1.82D-05    CP:  9.45D-01  6.20D-01  8.45D-01  8.72D-01  1.13D+00
                    CP:  1.13D+00
 E= -687.471476555855     Delta-E=       -0.000027678105 Rises=F Damp=F
 DIIS: error= 7.22D-05 at cycle   7 NSaved=   7.
 NSaved= 7 IEnMin= 7 EnMin= -687.471476555855     IErMin= 7 ErrMin= 7.22D-05
 ErrMax= 7.22D-05  0.00D+00 EMaxC= 1.00D-01 BMatC= 2.03D-06 BMatP= 1.33D-05
 IDIUse=1 WtCom= 1.00D+00 WtEn= 0.00D+00
 Coeff-Com:  0.115D-03-0.822D-03-0.144D-01-0.422D-01-0.934D-01 0.178D+00
 Coeff-Com:  0.973D+00
 Coeff:      0.115D-03-0.822D-03-0.144D-01-0.422D-01-0.934D-01 0.178D+00
 Coeff:      0.973D+00
 Gap=     0.250 Goal=   None    Shift=    0.000
 RMSDP=1.93D-05 MaxDP=6.73D-04 DE=-2.77D-05 OVMax= 2.27D-03

 Cycle   8  Pass 0  IDiag  1:
 RMSU=  8.16D-06    CP:  9.45D-01  6.19D-01  8.45D-01  8.86D-01  1.21D+00
                    CP:  1.39D+00  1.39D+00
 E= -687.471482820523     Delta-E=       -0.000006264668 Rises=F Damp=F
 DIIS: error= 2.23D-05 at cycle   8 NSaved=   8.
 NSaved= 8 IEnMin= 8 EnMin= -687.471482820523     IErMin= 8 ErrMin= 2.23D-05
 ErrMax= 2.23D-05  0.00D+00 EMaxC= 1.00D-01 BMatC= 3.14D-07 BMatP= 2.03D-06
 IDIUse=1 WtCom= 1.00D+00 WtEn= 0.00D+00
 Coeff-Com:  0.897D-03 0.983D-03-0.292D-02-0.166D-01-0.841D-01-0.464D-01
 Coeff-Com:  0.288D+00 0.860D+00
 Coeff:      0.897D-03 0.983D-03-0.292D-02-0.166D-01-0.841D-01-0.464D-01
 Coeff:      0.288D+00 0.860D+00
 Gap=     0.250 Goal=   None    Shift=    0.000
 RMSDP=8.17D-06 MaxDP=2.98D-04 DE=-6.26D-06 OVMax= 9.09D-04

 Initial convergence to 1.0D-05 achieved.  Increase integral accuracy.
 Cycle   9  Pass 1  IDiag  1:
 E= -687.471498395059     Delta-E=       -0.000015574536 Rises=F Damp=F
 DIIS: error= 1.34D-04 at cycle   1 NSaved=   1.
 NSaved= 1 IEnMin= 1 EnMin= -687.471498395059     IErMin= 1 ErrMin= 1.34D-04
 ErrMax= 1.34D-04  0.00D+00 EMaxC= 1.00D-01 BMatC= 1.49D-06 BMatP= 1.49D-06
 IDIUse=3 WtCom= 9.99D-01 WtEn= 1.34D-03
 Coeff-Com:  0.100D+01
 Coeff-En:   0.100D+01
 Coeff:      0.100D+01
 Gap=     0.250 Goal=   None    Shift=    0.000
 RMSDP=8.17D-06 MaxDP=2.98D-04 DE=-1.56D-05 OVMax= 2.76D-04

 Cycle  10  Pass 1  IDiag  1:
 RMSU=  8.16D-05    CP:  1.00D+00
 E= -687.471499700207     Delta-E=       -0.000001305148 Rises=F Damp=F
 DIIS: error= 1.21D-05 at cycle   2 NSaved=   2.
 NSaved= 2 IEnMin= 2 EnMin= -687.471499700207     IErMin= 2 ErrMin= 1.21D-05
 ErrMax= 1.21D-05  0.00D+00 EMaxC= 1.00D-01 BMatC= 3.79D-08 BMatP= 1.49D-06
 IDIUse=1 WtCom= 1.00D+00 WtEn= 0.00D+00
 Coeff-Com:  0.885D-03 0.999D+00
 Coeff:      0.885D-03 0.999D+00
 Gap=     0.250 Goal=   None    Shift=    0.000
 RMSDP=5.69D-06 MaxDP=1.87D-04 DE=-1.31D-06 OVMax= 2.39D-04

 Cycle  11  Pass 1  IDiag  1:
 RMSU=  2.18D-06    CP:  1.00D+00  1.06D+00
 E= -687.471499709561     Delta-E=       -0.000000009355 Rises=F Damp=F
 DIIS: error= 1.56D-05 at cycle   3 NSaved=   3.
 NSaved= 3 IEnMin= 3 EnMin= -687.471499709561     IErMin= 2 ErrMin= 1.21D-05
 ErrMax= 1.56D-05  0.00D+00 EMaxC= 1.00D-01 BMatC= 7.09D-08 BMatP= 3.79D-08
 IDIUse=1 WtCom= 1.00D+00 WtEn= 0.00D+00
 Coeff-Com: -0.265D-01 0.599D+00 0.428D+00
 Coeff:     -0.265D-01 0.599D+00 0.428D+00
 Gap=     0.250 Goal=   None    Shift=    0.000
 RMSDP=1.07D-06 MaxDP=4.45D-05 DE=-9.35D-09 OVMax= 5.09D-05

 Cycle  12  Pass 1  IDiag  1:
 RMSU=  9.60D-07    CP:  1.00D+00  1.07D+00  8.94D-01
 E= -687.471499774406     Delta-E=       -0.000000064845 Rises=F Damp=F
 DIIS: error= 1.96D-06 at cycle   4 NSaved=   4.
 NSaved= 4 IEnMin= 4 EnMin= -687.471499774406     IErMin= 4 ErrMin= 1.96D-06
 ErrMax= 1.96D-06  0.00D+00 EMaxC= 1.00D-01 BMatC= 1.09D-09 BMatP= 3.79D-08
 IDIUse=1 WtCom= 1.00D+00 WtEn= 0.00D+00
 Coeff-Com: -0.402D-02 0.385D-01 0.595D-02 0.960D+00
 Coeff:     -0.402D-02 0.385D-01 0.595D-02 0.960D+00
 Gap=     0.250 Goal=   None    Shift=    0.000
 RMSDP=5.15D-07 MaxDP=2.25D-05 DE=-6.48D-08 OVMax= 6.46D-05

 Cycle  13  Pass 1  IDiag  1:
 RMSU=  3.10D-07    CP:  1.00D+00  1.07D+00  1.02D+00  1.27D+00
 E= -687.471499779629     Delta-E=       -0.000000005222 Rises=F Damp=F
 DIIS: error= 1.20D-06 at cycle   5 NSaved=   5.
 NSaved= 5 IEnMin= 5 EnMin= -687.471499779629     IErMin= 5 ErrMin= 1.20D-06
 ErrMax= 1.20D-06  0.00D+00 EMaxC= 1.00D-01 BMatC= 9.51D-10 BMatP= 1.09D-09
 IDIUse=1 WtCom= 1.00D+00 WtEn= 0.00D+00
 Coeff-Com:  0.839D-02-0.220D+00-0.203D+00 0.589D+00 0.824D+00
 Coeff:      0.839D-02-0.220D+00-0.203D+00 0.589D+00 0.824D+00
 Gap=     0.250 Goal=   None    Shift=    0.000
 RMSDP=4.51D-07 MaxDP=2.09D-05 DE=-5.22D-09 OVMax= 5.90D-05

 Cycle  14  Pass 1  IDiag  1:
 RMSU=  1.88D-07    CP:  1.00D+00  1.07D+00  1.11D+00  1.58D+00  1.50D+00
 E= -687.471499782608     Delta-E=       -0.000000002980 Rises=F Damp=F
 DIIS: error= 3.32D-07 at cycle   6 NSaved=   6.
 NSaved= 6 IEnMin= 6 EnMin= -687.471499782608     IErMin= 6 ErrMin= 3.32D-07
 ErrMax= 3.32D-07  0.00D+00 EMaxC= 1.00D-01 BMatC= 5.86D-11 BMatP= 9.51D-10
 IDIUse=1 WtCom= 1.00D+00 WtEn= 0.00D+00
 Coeff-Com:  0.236D-02-0.509D-01-0.526D-01-0.184D-01 0.180D+00 0.940D+00
 Coeff:      0.236D-02-0.509D-01-0.526D-01-0.184D-01 0.180D+00 0.940D+00
 Gap=     0.250 Goal=   None    Shift=    0.000
 RMSDP=1.39D-07 MaxDP=5.29D-06 DE=-2.98D-09 OVMax= 1.99D-05

 Cycle  15  Pass 1  IDiag  1:
 RMSU=  4.67D-08    CP:  1.00D+00  1.07D+00  1.13D+00  1.64D+00  1.82D+00
                    CP:  1.21D+00
 E= -687.471499782924     Delta-E=       -0.000000000316 Rises=F Damp=F
 DIIS: error= 1.41D-07 at cycle   7 NSaved=   7.
 NSaved= 7 IEnMin= 7 EnMin= -687.471499782924     IErMin= 7 ErrMin= 1.41D-07
 ErrMax= 1.41D-07  0.00D+00 EMaxC= 1.00D-01 BMatC= 1.54D-11 BMatP= 5.86D-11
 IDIUse=1 WtCom= 1.00D+00 WtEn= 0.00D+00
 Coeff-Com: -0.291D-03 0.130D-01 0.776D-02-0.111D+00-0.504D-01 0.455D+00
 Coeff-Com:  0.685D+00
 Coeff:     -0.291D-03 0.130D-01 0.776D-02-0.111D+00-0.504D-01 0.455D+00
 Coeff:      0.685D+00
 Gap=     0.250 Goal=   None    Shift=    0.000
 RMSDP=4.00D-08 MaxDP=1.28D-06 DE=-3.16D-10 OVMax= 5.80D-06

 Cycle  16  Pass 1  IDiag  1:
 RMSU=  1.58D-08    CP:  1.00D+00  1.07D+00  1.13D+00  1.66D+00  1.89D+00
                    CP:  1.31D+00  1.02D+00
 E= -687.471499782942     Delta-E=       -0.000000000018 Rises=F Damp=F
 DIIS: error= 3.94D-08 at cycle   8 NSaved=   8.
 NSaved= 8 IEnMin= 8 EnMin= -687.471499782942     IErMin= 8 ErrMin= 3.94D-08
 ErrMax= 3.94D-08  0.00D+00 EMaxC= 1.00D-01 BMatC= 7.16D-13 BMatP= 1.54D-11
 IDIUse=1 WtCom= 1.00D+00 WtEn= 0.00D+00
 Coeff-Com: -0.239D-03 0.741D-02 0.592D-02-0.368D-01-0.251D-01 0.881D-01
 Coeff-Com:  0.232D+00 0.729D+00
 Coeff:     -0.239D-03 0.741D-02 0.592D-02-0.368D-01-0.251D-01 0.881D-01
 Coeff:      0.232D+00 0.729D+00
 Gap=     0.250 Goal=   None    Shift=    0.000
 RMSDP=7.43D-09 MaxDP=2.44D-07 DE=-1.82D-11 OVMax= 8.13D-07

 SCF Done:  E(RLC-wHPBE) =  -687.471499783     A.U. after   16 cycles
            NFock= 16  Conv=0.74D-08     -V/T= 2.0110
 KE= 6.799943961630D+02 PE=-3.729518111651D+03 EE= 1.285373630294D+03
 Leave Link  502 at Wed May 11 05:53:57 2022, MaxMem=  6442450944 cpu:            1173.9 elap:              75.1
 (Enter /mnt/gpfs3_amd/share/apps/amd/gaussian/g16-A.03/g16/l601.exe)
 Copying SCF densities to generalized density rwf, IOpCl= 0 IROHF=0.

 **********************************************************************

            Population analysis using the SCF density.

 **********************************************************************

 Orbital symmetries:
       Occupied  (A) (A) (A) (A) (A) (A) (A) (A) (A) (A) (A) (A)
                 (A) (A) (A) (A) (A) (A) (A) (A) (A) (A) (A) (A)
                 (A) (A) (A) (A) (A) (A) (A) (A) (A) (A) (A) (A)
                 (A) (A) (A) (A) (A) (A) (A) (A) (A) (A) (A) (A)
                 (A) (A) (A) (A) (A) (A) (A) (A) (A) (A)
       Virtual   (A) (A) (A) (A) (A) (A) (A) (A) (A) (A) (A) (A)
                 (A) (A) (A) (A) (A) (A) (A) (A) (A) (A) (A) (A)
                 (A) (A) (A) (A) (A) (A) (A) (A) (A) (A) (A) (A)
                 (A) (A) (A) (A) (A) (A) (A) (A) (A) (A) (A) (A)
                 (A) (A) (A) (A) (A) (A) (A) (A) (A) (A) (A) (A)
                 (A) (A) (A) (A) (A) (A) (A) (A) (A) (A) (A) (A)
                 (A) (A) (A) (A) (A) (A) (A) (A) (A) (A) (A) (A)
                 (A) (A) (A) (A) (A) (A) (A) (A) (A) (A) (A) (A)
                 (A) (A) (A) (A) (A) (A) (A) (A) (A) (A) (A) (A)
                 (A) (A) (A) (A) (A) (A) (A) (A) (A) (A) (A) (A)
                 (A) (A) (A) (A) (A) (A) (A) (A) (A) (A) (A) (A)
                 (A) (A) (A) (A) (A) (A) (A) (A) (A) (A) (A) (A)
                 (A) (A) (A) (A) (A) (A) (A) (A) (A) (A) (A) (A)
                 (A) (A) (A) (A) (A) (A) (A) (A) (A) (A) (A) (A)
                 (A) (A) (A) (A) (A) (A) (A) (A) (A) (A) (A) (A)
                 (A) (A) (A) (A) (A) (A) (A) (A) (A) (A) (A) (A)
                 (A) (A) (A) (A) (A) (A) (A) (A) (A) (A) (A) (A)
                 (A) (A) (A) (A) (A) (A) (A) (A) (A) (A) (A) (A)
                 (A) (A) (A) (A) (A) (A) (A) (A) (A) (A) (A) (A)
                 (A) (A) (A) (A) (A) (A) (A) (A) (A) (A) (A) (A)
                 (A) (A) (A) (A) (A)
 The electronic state is 1-A.
 Alpha  occ. eigenvalues --  -14.33022 -14.32968 -10.31415 -10.31060 -10.27633
 Alpha  occ. eigenvalues --  -10.19277 -10.19087 -10.15078 -10.14760 -10.14493
 Alpha  occ. eigenvalues --  -10.14223 -10.14104 -10.14001 -10.13977 -10.13642
 Alpha  occ. eigenvalues --  -10.13541 -10.13431  -1.20102  -1.15073  -1.10328
 Alpha  occ. eigenvalues --   -1.03498  -1.01911  -0.93986  -0.92532  -0.91532
 Alpha  occ. eigenvalues --   -0.91065  -0.84805  -0.83657  -0.81212  -0.80655
 Alpha  occ. eigenvalues --   -0.78829  -0.77940  -0.76748  -0.74312  -0.73315
 Alpha  occ. eigenvalues --   -0.68902  -0.68107  -0.67745  -0.66573  -0.64825
 Alpha  occ. eigenvalues --   -0.64017  -0.63195  -0.62093  -0.61721  -0.60217
 Alpha  occ. eigenvalues --   -0.59891  -0.58054  -0.57707  -0.54747  -0.53967
 Alpha  occ. eigenvalues --   -0.53401  -0.52433  -0.51123  -0.50458  -0.46166
 Alpha  occ. eigenvalues --   -0.44907  -0.44392  -0.41725
 Alpha virt. eigenvalues --   -0.16712  -0.13579  -0.07683  -0.06882  -0.05463
 Alpha virt. eigenvalues --   -0.04396  -0.03648   0.00284   0.02067   0.02949
 Alpha virt. eigenvalues --    0.03188   0.03579   0.05913   0.06933   0.07471
 Alpha virt. eigenvalues --    0.08199   0.08741   0.09631   0.10184   0.11097
 Alpha virt. eigenvalues --    0.11330   0.11772   0.13239   0.13435   0.16744
 Alpha virt. eigenvalues --    0.17110   0.20314   0.22174   0.22819   0.24452
 Alpha virt. eigenvalues --    0.24774   0.25041   0.25323   0.27557   0.28396
 Alpha virt. eigenvalues --    0.30027   0.31150   0.31537   0.32175   0.33687
 Alpha virt. eigenvalues --    0.34563   0.35309   0.36034   0.37025   0.37103
 Alpha virt. eigenvalues --    0.38208   0.38911   0.40637   0.40807   0.42099
 Alpha virt. eigenvalues --    0.43024   0.43388   0.44178   0.44808   0.45491
 Alpha virt. eigenvalues --    0.45887   0.46317   0.46470   0.47330   0.49050
 Alpha virt. eigenvalues --    0.50531   0.51747   0.51880   0.52157   0.53459
 Alpha virt. eigenvalues --    0.53769   0.54629   0.55903   0.56253   0.57820
 Alpha virt. eigenvalues --    0.58390   0.59421   0.60322   0.60838   0.61004
 Alpha virt. eigenvalues --    0.61237   0.61809   0.62368   0.63382   0.63941
 Alpha virt. eigenvalues --    0.65497   0.65951   0.66129   0.67955   0.68825
 Alpha virt. eigenvalues --    0.69112   0.69376   0.69703   0.71463   0.72135
 Alpha virt. eigenvalues --    0.72168   0.72824   0.73486   0.74337   0.75572
 Alpha virt. eigenvalues --    0.77532   0.78407   0.78851   0.81046   0.82370
 Alpha virt. eigenvalues --    0.86172   0.87133   0.87887   0.88849   0.90879
 Alpha virt. eigenvalues --    0.92261   0.96039   0.98694   1.02013   1.02904
 Alpha virt. eigenvalues --    1.03875   1.05436   1.06920   1.09826   1.13734
 Alpha virt. eigenvalues --    1.14250   1.14530   1.15466   1.18146   1.18892
 Alpha virt. eigenvalues --    1.19715   1.20696   1.21748   1.21979   1.22654
 Alpha virt. eigenvalues --    1.23314   1.23847   1.25128   1.27563   1.28349
 Alpha virt. eigenvalues --    1.30055   1.35798   1.36838   1.41358   1.45862
 Alpha virt. eigenvalues --    1.46990   1.47974   1.52103   1.54678   1.57469
 Alpha virt. eigenvalues --    1.59066   1.60031   1.60564   1.60896   1.62181
 Alpha virt. eigenvalues --    1.63863   1.65868   1.66661   1.67969   1.69055
 Alpha virt. eigenvalues --    1.69256   1.69927   1.70650   1.71072   1.71225
 Alpha virt. eigenvalues --    1.71684   1.71864   1.72852   1.73608   1.74232
 Alpha virt. eigenvalues --    1.74849   1.76885   1.78350   1.80158   1.80706
 Alpha virt. eigenvalues --    1.81278   1.86248   1.88158   1.88889   1.89631
 Alpha virt. eigenvalues --    1.90093   1.92388   1.92409   1.92917   1.93008
 Alpha virt. eigenvalues --    1.93700   1.95024   1.95549   1.97925   1.98644
 Alpha virt. eigenvalues --    2.03131   2.03358   2.05038   2.06878   2.07509
 Alpha virt. eigenvalues --    2.08312   2.08462   2.09426   2.10295   2.11866
 Alpha virt. eigenvalues --    2.12028   2.13471   2.13876   2.20776   2.21472
 Alpha virt. eigenvalues --    2.22060   2.23067   2.23605   2.24953   2.26289
 Alpha virt. eigenvalues --    2.27251   2.27758   2.28209   2.28459   2.33397
 Alpha virt. eigenvalues --    2.35115   2.36637   2.39348   2.42159   2.46478
 Alpha virt. eigenvalues --    2.48503   2.51661   2.53729   2.54537   2.55664
 Alpha virt. eigenvalues --    2.57256   2.58355   2.58542   2.58831   2.66202
 Alpha virt. eigenvalues --    2.66783   2.67640   2.68351   2.69797   2.73247
 Alpha virt. eigenvalues --    2.75553   2.78820   2.82309   2.83215   2.84177
 Alpha virt. eigenvalues --    2.85298   2.90901   2.96915   3.00952   3.04861
 Alpha virt. eigenvalues --    3.05470   3.06975   3.12304   3.15321   3.19151
 Alpha virt. eigenvalues --    3.22498   3.24774   3.35538   3.60012   3.61808
          Condensed to atoms (all electrons):
               1          2          3          4          5          6
     1  N    6.010403   0.483441  -0.040334  -0.045491  -0.000510   0.000310
     2  C    0.483441   5.071225   0.204295   0.177775  -0.037898  -0.007888
     3  C   -0.040334   0.204295   5.299207   0.144271  -0.039823   0.004419
     4  C   -0.045491   0.177775   0.144271   5.156231   0.437029  -0.054142
     5  N   -0.000510  -0.037898  -0.039823   0.437029   6.710476   0.261852
     6  C    0.000310  -0.007888   0.004419  -0.054142   0.261852   5.347225
     7  C    0.000110  -0.000411  -0.002902  -0.002846  -0.086150   0.169597
     8  C   -0.000004   0.000228  -0.000114   0.000206   0.009520   0.158071
     9  C    0.000000  -0.000010  -0.000004   0.000058  -0.000795  -0.194509
    10  C   -0.000000  -0.000032   0.000026  -0.000019   0.009897   0.173198
    11  C   -0.000011   0.001015  -0.000652   0.003596  -0.081518   0.189482
    12  C   -0.000064   0.000233  -0.005329  -0.045685   0.250908  -0.041863
    13  C    0.000000  -0.000812   0.000922   0.001813  -0.077390   0.002787
    14  C   -0.000000   0.000037  -0.000031   0.000062   0.010764  -0.001857
    15  C    0.000000   0.000000  -0.000010   0.000053  -0.000859   0.000174
    16  C    0.000000  -0.000042   0.000049   0.000160   0.009060  -0.000274
    17  C    0.000000  -0.001663  -0.000274  -0.001661  -0.082090   0.004349
    18  H    0.377422  -0.017294   0.006095  -0.009084   0.000231  -0.000007
    19  H    0.361881  -0.005910  -0.008154   0.009462  -0.000024  -0.000016
    20  H   -0.000421  -0.039436   0.441251  -0.033297  -0.000248  -0.000122
    21  H    0.000025   0.000353  -0.004764   0.009727  -0.016002  -0.089967
    22  H   -0.000000  -0.000001   0.000009  -0.000063  -0.000149   0.016285
    23  H    0.000000  -0.000000   0.000000  -0.000000   0.000011  -0.002037
    24  H    0.000000   0.000001  -0.000000   0.000003  -0.000091   0.016495
    25  H    0.000000  -0.000041   0.000006  -0.000447  -0.016080  -0.075374
    26  H   -0.000000  -0.000023  -0.000006  -0.000617  -0.016922   0.010078
    27  H   -0.000000  -0.000000   0.000001   0.000001  -0.000142  -0.000024
    28  H    0.000000   0.000000  -0.000000  -0.000000   0.000011   0.000001
    29  H   -0.000000   0.000003   0.000003  -0.000047  -0.000123   0.000006
    30  H    0.000019  -0.003810  -0.000170   0.008513  -0.014811  -0.000405
               7          8          9         10         11         12
     1  N    0.000110  -0.000004   0.000000  -0.000000  -0.000011  -0.000064
     2  C   -0.000411   0.000228  -0.000010  -0.000032   0.001015   0.000233
     3  C   -0.002902  -0.000114  -0.000004   0.000026  -0.000652  -0.005329
     4  C   -0.002846   0.000206   0.000058  -0.000019   0.003596  -0.045685
     5  N   -0.086150   0.009520  -0.000795   0.009897  -0.081518   0.250908
     6  C    0.169597   0.158071  -0.194509   0.173198   0.189482  -0.041863
     7  C    5.275205   0.229447   0.120800  -0.181100   0.096337   0.003005
     8  C    0.229447   5.064974   0.247826   0.139380  -0.181239  -0.000312
     9  C    0.120800   0.247826   5.107689   0.206065   0.132142   0.000160
    10  C   -0.181100   0.139380   0.206065   5.128864   0.190919  -0.001488
    11  C    0.096337  -0.181239   0.132142   0.190919   5.228427   0.003709
    12  C    0.003005  -0.000312   0.000160  -0.001488   0.003709   5.326844
    13  C    0.000307   0.000099  -0.000060  -0.000323  -0.007018   0.197133
    14  C    0.000020   0.000005  -0.000000   0.000012  -0.000327   0.172852
    15  C   -0.000004   0.000000  -0.000000  -0.000000  -0.000065  -0.195967
    16  C    0.000012  -0.000000   0.000000   0.000004   0.000096   0.155836
    17  C   -0.000969   0.000011  -0.000003   0.000000   0.000420   0.190595
    18  H   -0.000015  -0.000001   0.000000   0.000000  -0.000003  -0.000020
    19  H    0.000032   0.000002  -0.000000  -0.000000   0.000002   0.000004
    20  H    0.000015   0.000001   0.000000  -0.000000   0.000003   0.000323
    21  H    0.452505  -0.063315   0.015477  -0.002709   0.018402  -0.000435
    22  H   -0.071294   0.446512  -0.066845   0.015848  -0.001799   0.000009
    23  H    0.015764  -0.069256   0.456603  -0.074967   0.015062   0.000001
    24  H   -0.002058   0.015730  -0.074089   0.457394  -0.072245  -0.000030
    25  H    0.018925  -0.002765   0.015624  -0.073443   0.460778   0.008671
    26  H   -0.001853   0.000188   0.000069  -0.000628  -0.000640  -0.072674
    27  H    0.000002  -0.000000   0.000000  -0.000001   0.000028   0.016961
    28  H    0.000000   0.000000  -0.000000   0.000000  -0.000000  -0.002043
    29  H   -0.000000   0.000000   0.000000  -0.000000  -0.000001   0.017196
    30  H    0.000021   0.000000   0.000000   0.000001  -0.000052  -0.089414
              13         14         15         16         17         18
     1  N    0.000000  -0.000000   0.000000   0.000000   0.000000   0.377422
     2  C   -0.000812   0.000037   0.000000  -0.000042  -0.001663  -0.017294
     3  C    0.000922  -0.000031  -0.000010   0.000049  -0.000274   0.006095
     4  C    0.001813   0.000062   0.000053   0.000160  -0.001661  -0.009084
     5  N   -0.077390   0.010764  -0.000859   0.009060  -0.082090   0.000231
     6  C    0.002787  -0.001857   0.000174  -0.000274   0.004349  -0.000007
     7  C    0.000307   0.000020  -0.000004   0.000012  -0.000969  -0.000015
     8  C    0.000099   0.000005   0.000000  -0.000000   0.000011  -0.000001
     9  C   -0.000060  -0.000000  -0.000000   0.000000  -0.000003   0.000000
    10  C   -0.000323   0.000012  -0.000000   0.000004   0.000000   0.000000
    11  C   -0.007018  -0.000327  -0.000065   0.000096   0.000420  -0.000003
    12  C    0.197133   0.172852  -0.195967   0.155836   0.190595  -0.000020
    13  C    5.209961   0.197116   0.134480  -0.179810   0.092615   0.000000
    14  C    0.197116   5.142405   0.188825   0.152004  -0.193221  -0.000000
    15  C    0.134480   0.188825   5.131521   0.217036   0.126153   0.000000
    16  C   -0.179810   0.152004   0.217036   5.088281   0.235893   0.000001
    17  C    0.092615  -0.193221   0.126153   0.235893   5.254440   0.000017
    18  H    0.000000  -0.000000   0.000000   0.000001   0.000017   0.464097
    19  H   -0.000000   0.000000  -0.000000  -0.000000  -0.000001  -0.021612
    20  H   -0.000021   0.000002  -0.000000   0.000000  -0.000015  -0.000046
    21  H    0.000004  -0.000000   0.000000   0.000001   0.000015   0.000000
    22  H   -0.000002  -0.000000   0.000000   0.000000  -0.000000   0.000000
    23  H   -0.000000   0.000000  -0.000000   0.000000   0.000000  -0.000000
    24  H    0.000024  -0.000001   0.000000  -0.000000   0.000002  -0.000000
    25  H   -0.000499  -0.000620   0.000059   0.000103  -0.001148   0.000001
    26  H    0.458069  -0.073518   0.014910  -0.002874   0.019593  -0.000000
    27  H   -0.069064   0.454447  -0.075972   0.015568  -0.001734   0.000000
    28  H    0.014730  -0.076199   0.463937  -0.073457   0.015845  -0.000000
    29  H   -0.001895   0.014885  -0.071381   0.446427  -0.066953  -0.000000
    30  H    0.020166  -0.002877   0.016099  -0.065158   0.445876   0.000077
              19         20         21         22         23         24
     1  N    0.361881  -0.000421   0.000025  -0.000000   0.000000   0.000000
     2  C   -0.005910  -0.039436   0.000353  -0.000001  -0.000000   0.000001
     3  C   -0.008154   0.441251  -0.004764   0.000009   0.000000  -0.000000
     4  C    0.009462  -0.033297   0.009727  -0.000063  -0.000000   0.000003
     5  N   -0.000024  -0.000248  -0.016002  -0.000149   0.000011  -0.000091
     6  C   -0.000016  -0.000122  -0.089967   0.016285  -0.002037   0.016495
     7  C    0.000032   0.000015   0.452505  -0.071294   0.015764  -0.002058
     8  C    0.000002   0.000001  -0.063315   0.446512  -0.069256   0.015730
     9  C   -0.000000   0.000000   0.015477  -0.066845   0.456603  -0.074089
    10  C   -0.000000  -0.000000  -0.002709   0.015848  -0.074967   0.457394
    11  C    0.000002   0.000003   0.018402  -0.001799   0.015062  -0.072245
    12  C    0.000004   0.000323  -0.000435   0.000009   0.000001  -0.000030
    13  C   -0.000000  -0.000021   0.000004  -0.000002  -0.000000   0.000024
    14  C    0.000000   0.000002  -0.000000  -0.000000   0.000000  -0.000001
    15  C   -0.000000  -0.000000   0.000000   0.000000  -0.000000   0.000000
    16  C   -0.000000   0.000000   0.000001   0.000000   0.000000  -0.000000
    17  C   -0.000001  -0.000015   0.000015  -0.000000   0.000000   0.000002
    18  H   -0.021612  -0.000046   0.000000   0.000000  -0.000000  -0.000000
    19  H    0.465575   0.000274   0.000014  -0.000000  -0.000000   0.000000
    20  H    0.000274   0.529079  -0.000084  -0.000000   0.000000   0.000000
    21  H    0.000014  -0.000084   0.706509  -0.012768  -0.000203   0.000023
    22  H   -0.000000  -0.000000  -0.012768   0.663474  -0.013817  -0.000321
    23  H   -0.000000   0.000000  -0.000203  -0.013817   0.654154  -0.012254
    24  H    0.000000   0.000000   0.000023  -0.000321  -0.012254   0.655596
    25  H   -0.000000  -0.000000  -0.000239   0.000019  -0.000188  -0.012127
    26  H    0.000000   0.000001   0.000018  -0.000002  -0.000000  -0.000003
    27  H   -0.000000  -0.000000  -0.000000   0.000000   0.000000  -0.000000
    28  H    0.000000   0.000000  -0.000000   0.000000  -0.000000   0.000000
    29  H    0.000000   0.000000  -0.000000  -0.000000   0.000000   0.000000
    30  H   -0.000004  -0.000023   0.000002  -0.000000  -0.000000  -0.000000
              25         26         27         28         29         30
     1  N    0.000000  -0.000000  -0.000000   0.000000  -0.000000   0.000019
     2  C   -0.000041  -0.000023  -0.000000   0.000000   0.000003  -0.003810
     3  C    0.000006  -0.000006   0.000001  -0.000000   0.000003  -0.000170
     4  C   -0.000447  -0.000617   0.000001  -0.000000  -0.000047   0.008513
     5  N   -0.016080  -0.016922  -0.000142   0.000011  -0.000123  -0.014811
     6  C   -0.075374   0.010078  -0.000024   0.000001   0.000006  -0.000405
     7  C    0.018925  -0.001853   0.000002   0.000000  -0.000000   0.000021
     8  C   -0.002765   0.000188  -0.000000   0.000000   0.000000   0.000000
     9  C    0.015624   0.000069   0.000000  -0.000000   0.000000   0.000000
    10  C   -0.073443  -0.000628  -0.000001   0.000000  -0.000000   0.000001
    11  C    0.460778  -0.000640   0.000028  -0.000000  -0.000001  -0.000052
    12  C    0.008671  -0.072674   0.016961  -0.002043   0.017196  -0.089414
    13  C   -0.000499   0.458069  -0.069064   0.014730  -0.001895   0.020166
    14  C   -0.000620  -0.073518   0.454447  -0.076199   0.014885  -0.002877
    15  C    0.000059   0.014910  -0.075972   0.463937  -0.071381   0.016099
    16  C    0.000103  -0.002874   0.015568  -0.073457   0.446427  -0.065158
    17  C   -0.001148   0.019593  -0.001734   0.015845  -0.066953   0.445876
    18  H    0.000001  -0.000000   0.000000  -0.000000  -0.000000   0.000077
    19  H   -0.000000   0.000000  -0.000000   0.000000   0.000000  -0.000004
    20  H   -0.000000   0.000001  -0.000000   0.000000   0.000000  -0.000023
    21  H   -0.000239   0.000018  -0.000000  -0.000000  -0.000000   0.000002
    22  H    0.000019  -0.000002   0.000000   0.000000  -0.000000  -0.000000
    23  H   -0.000188  -0.000000   0.000000  -0.000000   0.000000  -0.000000
    24  H   -0.012127  -0.000003  -0.000000   0.000000   0.000000  -0.000000
    25  H    0.665462  -0.000124  -0.000002   0.000000  -0.000003   0.000034
    26  H   -0.000124   0.664602  -0.012662  -0.000130   0.000020  -0.000323
    27  H   -0.000002  -0.012662   0.660335  -0.012077  -0.000307   0.000027
    28  H    0.000000  -0.000130  -0.012077   0.653354  -0.012104  -0.000217
    29  H   -0.000003   0.000020  -0.000307  -0.012104   0.659224  -0.013981
    30  H    0.000034  -0.000323   0.000027  -0.000217  -0.013981   0.719552
 Mulliken charges:
               1
     1  N   -0.146778
     2  C    0.176666
     3  C    0.002014
     4  C    0.244437
     5  N   -0.228134
     6  C    0.114156
     7  C   -0.032502
     8  C    0.004806
     9  C    0.033803
    10  C    0.013104
    11  C    0.005155
    12  C    0.110884
    13  C    0.006669
    14  C    0.015215
    15  C    0.051012
    16  C    0.001086
    17  C   -0.036094
    18  H    0.200140
    19  H    0.198475
    20  H    0.102765
    21  H   -0.012589
    22  H    0.024907
    23  H    0.031128
    24  H    0.027949
    25  H    0.013421
    26  H    0.015452
    27  H    0.024616
    28  H    0.028349
    29  H    0.029031
    30  H   -0.019142
 Sum of Mulliken charges =   1.00000
 Mulliken charges with hydrogens summed into heavy atoms:
               1
     1  N    0.251837
     2  C    0.176666
     3  C    0.104778
     4  C    0.244437
     5  N   -0.228134
     6  C    0.114156
     7  C   -0.045091
     8  C    0.029713
     9  C    0.064930
    10  C    0.041053
    11  C    0.018576
    12  C    0.110884
    13  C    0.022121
    14  C    0.039831
    15  C    0.079361
    16  C    0.030117
    17  C   -0.055235
 Electronic spatial extent (au):  <R**2>=           4156.0273
 Charge=              1.0000 electrons
 Dipole moment (field-independent basis, Debye):
    X=             -2.6643    Y=              8.1737    Z=             -0.1896  Tot=              8.5990
 Quadrupole moment (field-independent basis, Debye-Ang):
   XX=            -65.4596   YY=            -47.4700   ZZ=            -84.9682
   XY=            -10.3059   XZ=              0.4230   YZ=              0.0519
 Traceless Quadrupole moment (field-independent basis, Debye-Ang):
   XX=              0.5064   YY=             18.4959   ZZ=            -19.0023
   XY=            -10.3059   XZ=              0.4230   YZ=              0.0519
 Octapole moment (field-independent basis, Debye-Ang**2):
  XXX=             11.8870  YYY=            132.7583  ZZZ=              3.2392  XYY=            -72.1810
  XXY=             -5.4195  XXZ=              3.5343  XZZ=            -10.7562  YZZ=             31.9920
  YYZ=             13.2343  XYZ=              1.3932
 Hexadecapole moment (field-independent basis, Debye-Ang**3):
 XXXX=          -2559.2009 YYYY=          -1516.1412 ZZZZ=           -393.8718 XXXY=            -71.5610
 XXXZ=             68.8170 YYYX=           -219.6519 YYYZ=             25.6638 ZZZX=            -12.8770
 ZZZY=              6.3310 XXYY=           -605.2270 XXZZ=           -569.8733 YYZZ=           -283.1758
 XXYZ=             51.4555 YYXZ=            -87.0160 ZZXY=            -20.7225
 N-N= 1.076678585411D+03 E-N=-3.729518118088D+03  KE= 6.799943961630D+02
 No NMR shielding tensors so no spin-rotation constants.
 Leave Link  601 at Wed May 11 05:53:57 2022, MaxMem=  6442450944 cpu:               2.9 elap:               0.2
 (Enter /mnt/gpfs3_amd/share/apps/amd/gaussian/g16-A.03/g16/l701.exe)
 ... and contract with generalized density number  0.
 Compute integral first derivatives.
   1 Symmetry operations used in ECPInt.
 ECPInt:  NShTT=   10011 NPrTT=   36575 LenC2=    9378 LenP2D=   24388.
 LDataN:  DoStor=T MaxTD1= 5 Len=  102
 Leave Link  701 at Wed May 11 05:53:58 2022, MaxMem=  6442450944 cpu:               2.8 elap:               0.2
 (Enter /mnt/gpfs3_amd/share/apps/amd/gaussian/g16-A.03/g16/l702.exe)
 L702 exits ... SP integral derivatives will be done elsewhere.
 Leave Link  702 at Wed May 11 05:53:58 2022, MaxMem=  6442450944 cpu:               0.1 elap:               0.0
 (Enter /mnt/gpfs3_amd/share/apps/amd/gaussian/g16-A.03/g16/l703.exe)
 Integral derivatives from FoFJK, PRISM(SPDF).
 Compute integral first derivatives, UseDBF=F ICtDFT=           0.
 Calling FoFJK, ICntrl=      2127 FMM=F ISym2X=0 I1Cent= 0 IOpClX= 0 NMat=1 NMatS=1 NMatT=0.
 FoFJK:  IHMeth= 1 ICntrl=    2127 DoSepK=T KAlg= 0 I1Cent=           0 FoldK=F
 IRaf=         1 NMat=       1 IRICut=       1 DoRegI=T DoRafI=F ISym2E= 0 IDoP0=0 IntGTp=1.
 FoFCou: FMM=F IPFlag=           0 FMFlag=      100000 FMFlg1=         800
         NFxFlg=           0 DoJE=F BraDBF=F KetDBF=F FulRan=T
         wScrn=  0.000000 ICntrl=      2527 IOpCl=  0 I1Cent=           0 NGrid=           0
         NMat0=    1 NMatS0=      1 NMatT0=    0 NMatD0=    1 NMtDS0=    0 NMtDT0=    0
 Symmetry not used in FoFCou.
 Leave Link  703 at Wed May 11 05:54:16 2022, MaxMem=  6442450944 cpu:             287.9 elap:              18.4
 (Enter /mnt/gpfs3_amd/share/apps/amd/gaussian/g16-A.03/g16/l716.exe)
 Dipole        =-1.04820864D+00 3.21576675D+00-7.46096401D-02
 ***** Axes restored to original set *****
 -------------------------------------------------------------------
 Center     Atomic                   Forces (Hartrees/Bohr)
 Number     Number              X              Y              Z
 -------------------------------------------------------------------
      1        7           0.011268077   -0.044591030   -0.028879820
      2        6          -0.011719996    0.100377468    0.027833528
      3        6          -0.026402783   -0.007951216    0.031699656
      4        6           0.004630502   -0.103839696   -0.013948614
      5        7           0.022055789    0.058718662    0.001715458
      6        6          -0.005201601    0.011971157   -0.000856819
      7        6          -0.016670360    0.005159414   -0.010503810
      8        6           0.005115819    0.009913580   -0.009847980
      9        6          -0.008341559    0.003456445   -0.008246126
     10        6           0.014197678   -0.004305126    0.008733210
     11        6          -0.009024941   -0.013479919    0.016869647
     12        6           0.004254773    0.000246246   -0.012840250
     13        6          -0.003790714   -0.005952742   -0.006057784
     14        6          -0.011920167   -0.006694935   -0.010810893
     15        6           0.004006120    0.003183221    0.004906385
     16        6           0.007385265    0.018110858    0.012676959
     17        6           0.007844027    0.018190008    0.012770766
     18        1          -0.011951347   -0.003905863   -0.011033832
     19        1           0.013976884   -0.005205096    0.005978907
     20        1           0.005965469    0.000818906   -0.006762677
     21        1           0.004745487    0.004954699   -0.008982300
     22        1          -0.000732249    0.005061515   -0.008099346
     23        1          -0.005710583   -0.002497640    0.001390523
     24        1          -0.001683489   -0.007372299    0.010532286
     25        1           0.005308941   -0.006184638    0.011459142
     26        1          -0.006561518   -0.007061418   -0.009375618
     27        1          -0.002401208   -0.013641661   -0.008495540
     28        1           0.004771841   -0.010169703   -0.000528009
     29        1           0.002243168   -0.001335306    0.001524819
     30        1           0.004342675    0.004026108    0.007178133
 -------------------------------------------------------------------
 Cartesian Forces:  Max     0.103839696 RMS     0.020020775
 Leave Link  716 at Wed May 11 05:54:16 2022, MaxMem=  6442450944 cpu:               0.4 elap:               0.0
 (Enter /mnt/gpfs3_amd/share/apps/amd/gaussian/g16-A.03/g16/l103.exe)

 GradGradGradGradGradGradGradGradGradGradGradGradGradGradGradGradGradGrad
 Berny optimization.
 FormGI is forming the generalized inverse of G from B-inverse, IUseBI=4.
 Internal  Forces:  Max     0.065607885 RMS     0.011873247
 Search for a local minimum.
 Step number   1 out of a maximum of  158
 All quantities printed in internal units (Hartrees-Bohrs-Radians)
 RMS Force = .11873D-01 SwitMx=.10000D-02 MixMth= 1
 Mixed Optimization -- RFO/linear search
 Second derivative matrix not updated -- first step.
 ITU=  0
     Eigenvalues ---    0.01296   0.01361   0.01382   0.01462   0.01494
     Eigenvalues ---    0.01556   0.01556   0.02016   0.02041   0.02074
     Eigenvalues ---    0.02078   0.02202   0.02212   0.02246   0.02255
     Eigenvalues ---    0.02272   0.02279   0.02298   0.02302   0.02313
     Eigenvalues ---    0.02319   0.02334   0.02346   0.02391   0.02394
     Eigenvalues ---    0.02408   0.02412   0.16000   0.16000   0.16000
     Eigenvalues ---    0.16000   0.16000   0.16000   0.16000   0.16000
     Eigenvalues ---    0.16000   0.16000   0.16000   0.16000   0.16000
     Eigenvalues ---    0.22000   0.22000   0.22000   0.22000   0.23479
     Eigenvalues ---    0.23484   0.25000   0.25000   0.25000   0.25000
     Eigenvalues ---    0.25000   0.25000   0.34260   0.34758   0.34930
     Eigenvalues ---    0.35228   0.35607   0.35623   0.35737   0.35795
     Eigenvalues ---    0.35883   0.36057   0.36438   0.41006   0.41131
     Eigenvalues ---    0.41711   0.42157   0.42374   0.42389   0.43023
     Eigenvalues ---    0.43233   0.43781   0.43962   0.44929   0.45016
     Eigenvalues ---    0.45996   0.47349   0.48493   0.48815   0.49563
     Eigenvalues ---    0.49643   0.49893   0.50031   0.51342
 RFO step:  Lambda=-5.50381500D-02 EMin= 1.29646930D-02
 Linear search not attempted -- first point.
 Maximum step size (   0.300) exceeded in Quadratic search.
    -- Step size scaled by   0.949
 Iteration  1 RMS(Cart)=  0.11216822 RMS(Int)=  0.00770043
 Iteration  2 RMS(Cart)=  0.00909448 RMS(Int)=  0.00015100
 Iteration  3 RMS(Cart)=  0.00007897 RMS(Int)=  0.00013628
 Iteration  4 RMS(Cart)=  0.00000007 RMS(Int)=  0.00013628
 ITry= 1 IFail=0 DXMaxC= 7.00D-01 DCOld= 1.00D+10 DXMaxT= 3.00D-01 DXLimC= 3.00D+00 Rises=F
 Variable       Old X    -DE/DX   Delta X   Delta X   Delta X     New X
                                 (Linear)    (Quad)   (Total)
[...]
 Alpha virt. eigenvalues --    0.50017   0.50535   0.51762   0.52487   0.52615
 Alpha virt. eigenvalues --    0.54446   0.55316   0.56214   0.56972   0.57330
 Alpha virt. eigenvalues --    0.57697   0.58747   0.59147   0.60079   0.60731
 Alpha virt. eigenvalues --    0.61287   0.61519   0.62318   0.63339   0.64090
 Alpha virt. eigenvalues --    0.64328   0.64865   0.66047   0.66992   0.67525
 Alpha virt. eigenvalues --    0.67979   0.68108   0.69128   0.70063   0.70459
 Alpha virt. eigenvalues --    0.71424   0.72287   0.72988   0.74164   0.75630
 Alpha virt. eigenvalues --    0.76016   0.76748   0.79016   0.80237   0.83244
 Alpha virt. eigenvalues --    0.84346   0.86368   0.86888   0.88342   0.92918
 Alpha virt. eigenvalues --    0.96049   0.98930   1.00683   1.01083   1.01693
 Alpha virt. eigenvalues --    1.03157   1.04221   1.09707   1.10934   1.12118
 Alpha virt. eigenvalues --    1.12561   1.14790   1.16366   1.16896   1.17200
 Alpha virt. eigenvalues --    1.17886   1.19122   1.19707   1.20415   1.21542
 Alpha virt. eigenvalues --    1.23255   1.23595   1.23838   1.25834   1.26847
 Alpha virt. eigenvalues --    1.28899   1.29766   1.40407   1.43205   1.44888
 Alpha virt. eigenvalues --    1.47711   1.51869   1.53172   1.54416   1.58456
 Alpha virt. eigenvalues --    1.59371   1.59664   1.60065   1.60600   1.61795
 Alpha virt. eigenvalues --    1.63895   1.64334   1.65426   1.66891   1.67261
 Alpha virt. eigenvalues --    1.67591   1.67757   1.68444   1.68830   1.69676
 Alpha virt. eigenvalues --    1.70254   1.70838   1.71397   1.73302   1.74104
 Alpha virt. eigenvalues --    1.75291   1.75913   1.77095   1.78021   1.78810
 Alpha virt. eigenvalues --    1.80427   1.84832   1.87160   1.87750   1.89457
 Alpha virt. eigenvalues --    1.89905   1.90453   1.90617   1.90905   1.91557
 Alpha virt. eigenvalues --    1.91841   1.92809   1.94846   1.96114   1.97048
 Alpha virt. eigenvalues --    1.98758   2.01638   2.02923   2.06069   2.06741
 Alpha virt. eigenvalues --    2.07484   2.08037   2.08547   2.09240   2.10438
 Alpha virt. eigenvalues --    2.12536   2.14152   2.18177   2.19807   2.20653
 Alpha virt. eigenvalues --    2.21477   2.21768   2.21967   2.23386   2.23643
 Alpha virt. eigenvalues --    2.24134   2.25895   2.26657   2.27740   2.32023
 Alpha virt. eigenvalues --    2.34313   2.37473   2.43819   2.45469   2.46562
 Alpha virt. eigenvalues --    2.49312   2.51144   2.52126   2.53027   2.53864
 Alpha virt. eigenvalues --    2.54915   2.55739   2.61421   2.63185   2.64056
 Alpha virt. eigenvalues --    2.64261   2.64784   2.68659   2.70244   2.71389
 Alpha virt. eigenvalues --    2.76112   2.77017   2.77607   2.78573   2.79109
 Alpha virt. eigenvalues --    2.80965   2.87311   2.92713   2.99697   3.01913
 Alpha virt. eigenvalues --    3.02467   3.03410   3.09021   3.13249   3.18101
 Alpha virt. eigenvalues --    3.27466   3.33218   3.45817   3.53400   3.56764
          Condensed to atoms (all electrons):
               1          2          3          4          5          6
     1  N    5.829514   0.502263  -0.048981  -0.040794   0.000146  -0.000745
     2  C    0.502263   4.875669   0.314088   0.329091  -0.039944  -0.012710
     3  C   -0.048981   0.314088   5.317184   0.170711  -0.053283   0.004960
     4  C   -0.040794   0.329091   0.170711   5.014450   0.477919  -0.054576
     5  N    0.000146  -0.039944  -0.053283   0.477919   6.559996   0.242362
     6  C   -0.000745  -0.012710   0.004960  -0.054576   0.242362   5.342607
     7  C   -0.001445  -0.002623   0.001584  -0.006481  -0.067070   0.209239
     8  C   -0.000009  -0.000166  -0.000026  -0.000003   0.007705   0.124733
     9  C    0.000000  -0.000012   0.000002   0.000105  -0.000253  -0.168081
    10  C    0.000006   0.000015  -0.000002   0.000016   0.008317   0.138499
    11  C   -0.000060   0.000625  -0.000266   0.002722  -0.067118   0.251543
    12  C   -0.000100   0.003074  -0.004143  -0.053103   0.229456  -0.037581
    13  C   -0.000000  -0.000523   0.000587   0.001988  -0.065721   0.002796
    14  C    0.000000   0.000009  -0.000008   0.000076   0.008090  -0.001326
    15  C    0.000000   0.000002  -0.000008   0.000137  -0.000236   0.000096
    16  C    0.000000   0.000020  -0.000133  -0.000002   0.007275  -0.000245
    17  C   -0.000001   0.000998  -0.000299  -0.006279  -0.066882   0.002920
    18  H    0.379148  -0.013412   0.008297  -0.020542   0.000390   0.000505
    19  H    0.361458  -0.006294  -0.011605   0.011890  -0.000055  -0.000018
    20  H   -0.001293  -0.057090   0.472617  -0.052573  -0.001280  -0.000109
    21  H    0.000986   0.000125  -0.000450   0.003058  -0.009710  -0.082420
    22  H   -0.000008   0.000012  -0.000001  -0.000026  -0.000139   0.015023
    23  H    0.000000  -0.000000  -0.000000  -0.000000   0.000008  -0.001802
    24  H   -0.000000   0.000001  -0.000000  -0.000002  -0.000127   0.014290
    25  H   -0.000000  -0.000087  -0.000040  -0.000570  -0.012790  -0.067713
    26  H   -0.000000  -0.000060  -0.000064  -0.000766  -0.013012   0.008980
    27  H   -0.000000  -0.000000   0.000000  -0.000004  -0.000129  -0.000017
    28  H    0.000000   0.000000  -0.000000  -0.000000   0.000009   0.000000
    29  H   -0.000000  -0.000002   0.000014  -0.000037  -0.000133   0.000007
    30  H   -0.000004  -0.000416   0.000542   0.004394  -0.012490  -0.000436
               7          8          9         10         11         12
     1  N   -0.001445  -0.000009   0.000000   0.000006  -0.000060  -0.000100
     2  C   -0.002623  -0.000166  -0.000012   0.000015   0.000625   0.003074
     3  C    0.001584  -0.000026   0.000002  -0.000002  -0.000266  -0.004143
     4  C   -0.006481  -0.000003   0.000105   0.000016   0.002722  -0.053103
     5  N   -0.067070   0.007705  -0.000253   0.008317  -0.067118   0.229456
     6  C    0.209239   0.124733  -0.168081   0.138499   0.251543  -0.037581
     7  C    5.230527   0.258224   0.094028  -0.156774   0.073398   0.002751
     8  C    0.258224   5.044639   0.274792   0.111017  -0.144251  -0.000301
     9  C    0.094028   0.274792   5.063300   0.264191   0.093716   0.000091
    10  C   -0.156774   0.111017   0.264191   5.056389   0.256428  -0.001242
    11  C    0.073398  -0.144251   0.093716   0.256428   5.097683   0.002742
    12  C    0.002751  -0.000301   0.000091  -0.001242   0.002742   5.320397
    13  C   -0.000643   0.000070  -0.000027  -0.000217  -0.005115   0.253813
    14  C    0.000059   0.000003   0.000002  -0.000008  -0.000159   0.132511
    15  C   -0.000007   0.000000  -0.000000   0.000002  -0.000032  -0.167226
    16  C    0.000012  -0.000000   0.000000   0.000003   0.000061   0.126706
    17  C   -0.000849   0.000012  -0.000006   0.000053  -0.000561   0.227228
    18  H    0.004391   0.000660   0.000007  -0.000028  -0.000080  -0.000018
    19  H   -0.000023   0.000000  -0.000000  -0.000000   0.000001   0.000009
    20  H   -0.000017  -0.000000  -0.000000  -0.000000   0.000003   0.000720
    21  H    0.447385  -0.055628   0.013408  -0.002255   0.013819  -0.000478
    22  H   -0.066066   0.443690  -0.063228   0.012592  -0.001471   0.000008
    23  H    0.014015  -0.066493   0.448281  -0.065050   0.013708   0.000000
    24  H   -0.001384   0.012616  -0.064638   0.443826  -0.062470  -0.000018
    25  H    0.014678  -0.002370   0.013331  -0.062376   0.449234   0.008354
    26  H   -0.001342   0.000184  -0.000004  -0.000275  -0.000996  -0.068524
    27  H    0.000002  -0.000000   0.000000  -0.000001   0.000014   0.014480
    28  H    0.000000   0.000000  -0.000000   0.000000  -0.000000  -0.001704
    29  H    0.000000   0.000000   0.000000  -0.000000  -0.000002   0.014801
    30  H   -0.000011   0.000000   0.000000  -0.000002   0.000091  -0.078923
              13         14         15         16         17         18
     1  N   -0.000000   0.000000   0.000000   0.000000  -0.000001   0.379148
     2  C   -0.000523   0.000009   0.000002   0.000020   0.000998  -0.013412
     3  C    0.000587  -0.000008  -0.000008  -0.000133  -0.000299   0.008297
     4  C    0.001988   0.000076   0.000137  -0.000002  -0.006279  -0.020542
     5  N   -0.065721   0.008090  -0.000236   0.007275  -0.066882   0.000390
     6  C    0.002796  -0.001326   0.000096  -0.000245   0.002920   0.000505
     7  C   -0.000643   0.000059  -0.000007   0.000012  -0.000849   0.004391
     8  C    0.000070   0.000003   0.000000  -0.000000   0.000012   0.000660
     9  C   -0.000027   0.000002  -0.000000   0.000000  -0.000006   0.000007
    10  C   -0.000217  -0.000008   0.000002   0.000003   0.000053  -0.000028
    11  C   -0.005115  -0.000159  -0.000032   0.000061  -0.000561  -0.000080
    12  C    0.253813   0.132511  -0.167226   0.126706   0.227228  -0.000018
    13  C    5.100186   0.265817   0.091761  -0.144549   0.069433   0.000000
    14  C    0.265817   5.044851   0.269722   0.107981  -0.150724  -0.000000
    15  C    0.091761   0.269722   5.060542   0.276901   0.091657   0.000000
    16  C   -0.144549   0.107981   0.276901   5.021357   0.277151  -0.000000
    17  C    0.069433  -0.150724   0.091657   0.277151   5.163156   0.000001
    18  H    0.000000  -0.000000   0.000000  -0.000000   0.000001   0.482943
    19  H   -0.000000   0.000000  -0.000000   0.000000  -0.000000  -0.025058
    20  H   -0.000008  -0.000001   0.000000   0.000021   0.000523  -0.000103
    21  H    0.000088  -0.000000   0.000000   0.000000  -0.000019   0.000579
    22  H   -0.000003  -0.000000   0.000000   0.000000   0.000000   0.000019
    23  H   -0.000000   0.000000  -0.000000   0.000000  -0.000000  -0.000002
    24  H    0.000014  -0.000001   0.000000  -0.000000   0.000001  -0.000000
    25  H   -0.000937  -0.000278  -0.000005   0.000175  -0.000912  -0.000003
    26  H    0.447162  -0.061353   0.013318  -0.002271   0.014419  -0.000000
    27  H   -0.063212   0.443667  -0.064742   0.012637  -0.001415   0.000000
    28  H    0.013711  -0.065347   0.447389  -0.065892   0.013819  -0.000000
    29  H   -0.001387   0.012522  -0.063773   0.442748  -0.064127  -0.000000
    30  H    0.013941  -0.002183   0.013563  -0.056010   0.446584   0.000001
              19         20         21         22         23         24
     1  N    0.361458  -0.001293   0.000986  -0.000008   0.000000  -0.000000
     2  C   -0.006294  -0.057090   0.000125   0.000012  -0.000000   0.000001
     3  C   -0.011605   0.472617  -0.000450  -0.000001  -0.000000  -0.000000
     4  C    0.011890  -0.052573   0.003058  -0.000026  -0.000000  -0.000002
     5  N   -0.000055  -0.001280  -0.009710  -0.000139   0.000008  -0.000127
     6  C   -0.000018  -0.000109  -0.082420   0.015023  -0.001802   0.014290
     7  C   -0.000023  -0.000017   0.447385  -0.066066   0.014015  -0.001384
     8  C    0.000000  -0.000000  -0.055628   0.443690  -0.066493   0.012616
     9  C   -0.000000  -0.000000   0.013408  -0.063228   0.448281  -0.064638
    10  C   -0.000000  -0.000000  -0.002255   0.012592  -0.065050   0.443826
    11  C    0.000001   0.000003   0.013819  -0.001471   0.013708  -0.062470
    12  C    0.000009   0.000720  -0.000478   0.000008   0.000000  -0.000018
    13  C   -0.000000  -0.000008   0.000088  -0.000003  -0.000000   0.000014
    14  C    0.000000  -0.000001  -0.000000  -0.000000   0.000000  -0.000001
    15  C   -0.000000   0.000000   0.000000   0.000000  -0.000000   0.000000
    16  C    0.000000   0.000021   0.000000   0.000000   0.000000  -0.000000
    17  C   -0.000000   0.000523  -0.000019   0.000000  -0.000000   0.000001
    18  H   -0.025058  -0.000103   0.000579   0.000019  -0.000002  -0.000000
    19  H    0.483514   0.000553  -0.000010   0.000000  -0.000000   0.000000
    20  H    0.000553   0.554629  -0.000002   0.000000  -0.000000  -0.000000
    21  H   -0.000010  -0.000002   0.667998  -0.011819  -0.000181   0.000021
    22  H    0.000000   0.000000  -0.011819   0.644655  -0.011261  -0.000203
    23  H   -0.000000  -0.000000  -0.000181  -0.011261   0.636818  -0.011109
    24  H    0.000000  -0.000000   0.000021  -0.000203  -0.011109   0.636738
    25  H   -0.000000  -0.000000  -0.000134   0.000016  -0.000163  -0.011153
    26  H   -0.000000  -0.000001   0.000112  -0.000001  -0.000000  -0.000001
    27  H   -0.000000  -0.000000  -0.000000  -0.000000   0.000000  -0.000000
    28  H    0.000000   0.000000  -0.000000   0.000000  -0.000000   0.000000
    29  H   -0.000000  -0.000001   0.000000  -0.000000   0.000000  -0.000000
    30  H   -0.000001  -0.000028  -0.000001  -0.000000  -0.000000  -0.000000
              25         26         27         28         29         30
     1  N   -0.000000  -0.000000  -0.000000   0.000000  -0.000000  -0.000004
     2  C   -0.000087  -0.000060  -0.000000   0.000000  -0.000002  -0.000416
     3  C   -0.000040  -0.000064   0.000000  -0.000000   0.000014   0.000542
     4  C   -0.000570  -0.000766  -0.000004  -0.000000  -0.000037   0.004394
     5  N   -0.012790  -0.013012  -0.000129   0.000009  -0.000133  -0.012490
     6  C   -0.067713   0.008980  -0.000017   0.000000   0.000007  -0.000436
     7  C    0.014678  -0.001342   0.000002   0.000000   0.000000  -0.000011
     8  C   -0.002370   0.000184  -0.000000   0.000000   0.000000   0.000000
     9  C    0.013331  -0.000004   0.000000  -0.000000   0.000000   0.000000
    10  C   -0.062376  -0.000275  -0.000001   0.000000  -0.000000  -0.000002
    11  C    0.449234  -0.000996   0.000014  -0.000000  -0.000002   0.000091
    12  C    0.008354  -0.068524   0.014480  -0.001704   0.014801  -0.078923
    13  C   -0.000937   0.447162  -0.063212   0.013711  -0.001387   0.013941
    14  C   -0.000278  -0.061353   0.443667  -0.065347   0.012522  -0.002183
    15  C   -0.000005   0.013318  -0.064742   0.447389  -0.063773   0.013563
    16  C    0.000175  -0.002271   0.012637  -0.065892   0.442748  -0.056010
    17  C   -0.000912   0.014419  -0.001415   0.013819  -0.064127   0.446584
    18  H   -0.000003  -0.000000   0.000000  -0.000000  -0.000000   0.000001
    19  H   -0.000000  -0.000000  -0.000000   0.000000  -0.000000  -0.000001
    20  H   -0.000000  -0.000001  -0.000000   0.000000  -0.000001  -0.000028
    21  H   -0.000134   0.000112  -0.000000  -0.000000   0.000000  -0.000001
    22  H    0.000016  -0.000001  -0.000000   0.000000  -0.000000  -0.000000
    23  H   -0.000163  -0.000000   0.000000  -0.000000   0.000000  -0.000000
    24  H   -0.011153  -0.000001  -0.000000   0.000000  -0.000000  -0.000000
    25  H    0.642371  -0.000017  -0.000001  -0.000000  -0.000001   0.000082
    26  H   -0.000017   0.649208  -0.011374  -0.000171   0.000017  -0.000134
    27  H   -0.000001  -0.011374   0.641026  -0.011201  -0.000204   0.000018
    28  H   -0.000000  -0.000171  -0.011201   0.639397  -0.011253  -0.000186
    29  H   -0.000001   0.000017  -0.000204  -0.011253   0.644942  -0.011892
    30  H    0.000082  -0.000134   0.000018  -0.000186  -0.011892   0.670874
 Mulliken charges:
               1
     1  N    0.019918
     2  C    0.107350
     3  C   -0.171277
     4  C    0.219200
     5  N   -0.131303
     6  C    0.069218
     7  C   -0.045556
     8  C   -0.009099
     9  C    0.030997
    10  C   -0.003122
    11  C    0.026792
    12  C    0.076221
    13  C    0.020974
    14  C   -0.003923
    15  C    0.030938
    16  C   -0.003943
    17  C   -0.015882
    18  H    0.182303
    19  H    0.185637
    20  H    0.083438
    21  H    0.015527
    22  H    0.038212
    23  H    0.043229
    24  H    0.043600
    25  H    0.031311
    26  H    0.026967
    27  H    0.040456
    28  H    0.041428
    29  H    0.037761
    30  H    0.012627
 Sum of Mulliken charges =   1.00000
 Mulliken charges with hydrogens summed into heavy atoms:
               1
     1  N    0.387858
     2  C    0.107350
     3  C   -0.087839
     4  C    0.219200
     5  N   -0.131303
     6  C    0.069218
     7  C   -0.030030
     8  C    0.029113
     9  C    0.074226
    10  C    0.040478
    11  C    0.058103
    12  C    0.076221
    13  C    0.047941
    14  C    0.036533
    15  C    0.072366
    16  C    0.033818
    17  C   -0.003255
 Electronic spatial extent (au):  <R**2>=           4086.7830
 Charge=              1.0000 electrons
 Dipole moment (field-independent basis, Debye):
    X=             -3.6658    Y=              6.1959    Z=              0.2080  Tot=              7.2021
 Quadrupole moment (field-independent basis, Debye-Ang):
   XX=            -54.0214   YY=            -54.6455   ZZ=            -91.9367
   XY=            -10.4402   XZ=              1.7717   YZ=              0.7193
 Traceless Quadrupole moment (field-independent basis, Debye-Ang):
   XX=             12.8465   YY=             12.2223   ZZ=            -25.0688
   XY=            -10.4402   XZ=              1.7717   YZ=              0.7193
 Octapole moment (field-independent basis, Debye-Ang**2):
  XXX=            -18.0838  YYY=            113.1613  ZZZ=              0.7594  XYY=            -67.1361
  XXY=             17.0780  XXZ=             -2.0785  XZZ=             -1.1518  YZZ=             -5.4197
  YYZ=              7.4860  XYZ=             13.0142
 Hexadecapole moment (field-independent basis, Debye-Ang**3):
 XXXX=          -2582.9902 YYYY=          -1323.5150 ZZZZ=           -384.0827 XXXY=           -160.8054
 XXXZ=             57.8190 YYYX=           -152.3143 YYYZ=            -31.2169 ZZZX=              9.2208
 ZZZY=              1.1693 XXYY=           -569.3061 XXZZ=           -586.3929 YYZZ=           -357.7757
 XXYZ=             52.3399 YYXZ=            -44.5092 ZZXY=             -2.5134
 N-N= 1.081985736623D+03 E-N=-3.739466378911D+03  KE= 6.795808190244D+02
 No NMR shielding tensors so no spin-rotation constants.
 Leave Link  601 at Wed May 11 06:11:57 2022, MaxMem=  6442450944 cpu:               3.4 elap:               0.2
 (Enter /mnt/gpfs3_amd/share/apps/amd/gaussian/g16-A.03/g16/l9999.exe)

 Test job not archived.
 1\1\GINC-ROME010\FOpt\RLC-wHPBE\def2SVP\C15H13N2(1+)\RDU230\11-May-202
 2\0\\#P LC-wHPBE/Def2SVP iop(3/107=0225700000, 3/108=0225700000) opt s
 cf(maxcyc=512)\\H13 C15 N2\\1,1\N,-0.32713645,3.9519227609,-0.32366243
 98\C,0.5528897551,2.9794847209,-0.2350509998\C,1.843682741,2.512095006
 6,-0.1924750295\C,0.810457595,1.5971137041,-0.1277761452\N,0.340844100
 1,0.3721647899,-0.0317040332\C,-1.0894350913,0.155449307,-0.1021472791
 \C,-1.8251888386,0.7247965018,-1.1486064773\C,-3.2109953197,0.53565408
 86,-1.1928596828\C,-3.8461187131,-0.2297165642,-0.2098486714\C,-3.0962
 031379,-0.8095794869,0.8201603872\C,-1.7136337487,-0.6188994578,0.8820
 302636\C,1.2451968162,-0.7475580651,0.1390476156\C,1.0982672893,-1.870
 3620702,-0.6830397827\C,1.9746755992,-2.9463012852,-0.5241187563\C,2.9
 872854169,-2.8965888833,0.4408174218\C,3.1211709612,-1.7703489685,1.25
 86148019\C,2.2441949228,-0.6904944223,1.1163364353\H,-1.3259715685,3.7
 476892222,-0.2939461475\H,-0.0304481589,4.9245604974,-0.4039843484\H,2
 .9175974638,2.7154700448,-0.1972658478\H,-1.3147177443,1.2854567845,-1
 .9446439949\H,-3.793437195,0.9717486678,-2.0152185385\H,-4.9320810551,
 -0.3846686624,-0.251911929\H,-3.593253022,-1.4148907937,1.5894629508\H
 ,-1.1200493457,-1.0676465631,1.6890945458\H,0.304445028,-1.9011305665,
 -1.4406870176\H,1.8674991355,-3.8306036295,-1.1657569972\H,3.673871809
 6,-3.7449132831,0.5592982365\H,3.9068235818,-1.7337511285,2.0245105707
 \H,2.3297671731,0.1838487339,1.7757478889\\Version=AM64L-G16RevA.03\St
 ate=1-A\HF=-687.548903\RMSD=9.679e-09\RMSF=9.306e-06\Dipole=0.1827334,
 2.8222511,-0.1743361\Quadrupole=1.6314671,16.0337143,-17.6651814,-2.58
 81781,3.8115139,-3.9661564\PG=C01 [X(C15H13N2)]\\@


 IF I HAVE SEEN FARTHER, IT IS BY STANDING ON THE
 SHOULDERS OF GIANTS. -- SIR ISAAC NEWTON
 Job cpu time:       0 days  5 hours  3 minutes 38.8 seconds.
 Elapsed time:       0 days  0 hours 19 minutes 18.4 seconds.
 File lengths (MBytes):  RWF=    168 Int=      0 D2E=      0 Chk=     16 Scr=     16
 Normal termination of Gaussian 16 at Wed May 11 06:11:57 2022.
