 Entering Gaussian System, Link 0=/mnt/gpfs3_amd/share/apps/amd/gaussian/g16-A.03/g16/g16
 Input=/scratch/rdu230/d3tales/high_throughput/runfiles//06IVBN/gaussian/gas_phase/opt/opt_cation2.com
 Output=/scratch/rdu230/d3tales/high_throughput/runfiles//06IVBN/gaussian/gas_phase/opt/opt_cation2.log
 Initial command:
 /mnt/gpfs3_amd/share/apps/amd/gaussian/g16-A.03/g16/l1.exe "/scratch/rdu230/d3tales/high_throughput/runfiles/06IVBN/gaussian/gas_phase/opt/Gau-1195814.inp" -scrdir="/scratch/rdu230/d3tales/high_throughput/runfiles/06IVBN/gaussian/gas_phase/opt/"
 Entering Link 1 = /mnt/gpfs3_amd/share/apps/amd/gaussian/g16-A.03/g16/l1.exe PID=   1195815.
  
 Copyright (c) 1988,1990,1992,1993,1995,1998,2003,2009,2016,
            Gaussian, Inc.  All Rights Reserved.
  
 This is part of the Gaussian(R) 16 program.  It is based on
 the Gaussian(R) 09 system (copyright 2009, Gaussian, Inc.),
 the Gaussian(R) 03 system (copyright 2003, Gaussian, Inc.),
 the Gaussian(R) 98 system (copyright 1998, Gaussian, Inc.),
 the Gaussian(R) 94 system (copyright 1995, Gaussian, Inc.),
 the Gaussian 92(TM) system (copyright 1992, Gaussian, Inc.),
 the Gaussian 90(TM) system (copyright 1990, Gaussian, Inc.),
 the Gaussian 88(TM) system (copyright 1988, Gaussian, Inc.),
 the Gaussian 86(TM) system (copyright 1986, Carnegie Mellon
 University), and the Gaussian 82(TM) system (copyright 1983,
 Carnegie Mellon University). Gaussian is a federally registered
 trademark of Gaussian, Inc.
  
 This software contains proprietary and confidential information,
 including trade secrets, belonging to Gaussian, Inc.
  
 This software is provided under written license and may be
 used, copied, transmitted, or stored only in accord with that
 written license.
  
 The following legend is applicable only to US Government
 contracts under FAR:
  
                    RESTRICTED RIGHTS LEGEND
  
 Use, reproduction and disclosure by the US Government is
 subject to restrictions as set forth in subparagraphs (a)
 and (c) of the Commercial Computer Software - Restricted
 Rights clause in FAR 52.227-19.
  
 Gaussian, Inc.
 340 Quinnipiac St., Bldg. 40, Wallingford CT 06492
  
  
 ---------------------------------------------------------------
 Warning -- This program may not be used in any manner that
 competes with the business of Gaussian, Inc. or will provide
 assistance to any competitor of Gaussian, Inc.  The licensee
 of this program is prohibited from giving any competitor of
 Gaussian, Inc. access to this program.  By using this program,
 the user acknowledges that Gaussian, Inc. is engaged in the
 business of creating and licensing software in the field of
 computational chemistry and represents and warrants to the
 licensee that it is not a competitor of Gaussian, Inc. and that
 it will not use this program in any manner prohibited above.
 ---------------------------------------------------------------
  

 Cite this work as:
 Gaussian 16, Revision A.03,
 M. J. Frisch, G. W. Trucks, H. B. Schlegel, G. E. Scuseria, 
 M. A. Robb, J. R. Cheeseman, G. Scalmani, V. Barone, 
 G. A. Petersson, H. Nakatsuji, X. Li, M. Caricato, A. V. Marenich, 
 J. Bloino, B. G. Janesko, R. Gomperts, B. Mennucci, H. P. Hratchian, 
 J. V. Ortiz, A. F. Izmaylov, J. L. Sonnenberg, D. Williams-Young, 
 F. Ding, F. Lipparini, F. Egidi, J. Goings, B. Peng, A. Petrone, 
 T. Henderson, D. Ranasinghe, V. G. Zakrzewski, J. Gao, N. Rega, 
 G. Zheng, W. Liang, M. Hada, M. Ehara, K. Toyota, R. Fukuda, 
 J. Hasegawa, M. Ishida, T. Nakajima, Y. Honda, O. Kitao, H. Nakai, 
 T. Vreven, K. Throssell, J. A. Montgomery, Jr., J. E. Peralta, 
 F. Ogliaro, M. J. Bearpark, J. J. Heyd, E. N. Brothers, K. N. Kudin, 
 V. N. Staroverov, T. A. Keith, R. Kobayashi, J. Normand, 
 K. Raghavachari, A. P. Rendell, J. C. Burant, S. S. Iyengar, 
 J. Tomasi, M. Cossi, J. M. Millam, M. Klene, C. Adamo, R. Cammi, 
 J. W. Ochterski, R. L. Martin, K. Morokuma, O. Farkas, 
 J. B. Foresman, and D. J. Fox, Gaussian, Inc., Wallingford CT, 2016.
 
 ******************************************
 Gaussian 16:  AM64L-G16RevA.03 25-Dec-2016
                11-May-2022 
 ******************************************
 %chk=/scratch/rdu230/d3tales/high_throughput/runfiles//06IVBN/gaussian/gas_phase
 /opt/opt_cation2.chk
 %mem=48GB
 %nprocshared=16
 Will use up to   16 processors via shared memory.
 ----------------------------------------------------------------------
 #P LC-wHPBE/Def2SVP iop(3/107=0225700000, 3/108=0225700000) opt scf(ma
 xcyc=512)
 ----------------------------------------------------------------------
 1/18=20,19=15,26=3,38=1/1,3;
 2/9=110,12=2,17=6,18=5,40=1/2;
 3/5=43,7=101,11=2,25=1,30=1,71=1,74=-71,107=225700000,108=225700000/1,2,3;
 4//1;
 5/5=2,7=512,38=5/2;
 6/7=2,8=2,9=2,10=2,28=1/1;
 7//1,2,3,16;
 1/18=20,19=15,26=3/3(2);
 2/9=110/2;
 99//99;
 2/9=110/2;
 3/5=43,7=101,11=2,25=1,30=1,71=1,74=-71,107=225700000,108=225700000/1,2,3;
 4/5=5,16=3,69=1/1;
 5/5=2,7=512,38=5/2;
 7//1,2,3,16;
 1/18=20,19=15,26=3/3(-5);
 2/9=110/2;
 6/7=2,8=2,9=2,10=2,19=2,28=1/1;
 99/9=1/99;
 Leave Link    1 at Wed May 11 06:05:11 2022, MaxMem=  6442450944 cpu:               4.0 elap:               0.3
 (Enter /mnt/gpfs3_amd/share/apps/amd/gaussian/g16-A.03/g16/l101.exe)
 ----------
 H13 C15 N2
 ----------
 Symbolic Z-matrix:
 Charge =  3 Multiplicity = 1
 N                     0.33376   4.15782   0.6451 
 C                     0.70776   3.01428  -0.09062 
 C                     1.468     2.52888  -1.15258 
 C                     0.66849   1.689    -0.35409 
 N                     0.24408   0.33995  -0.14314 
 C                    -1.14087   0.06512  -0.23486 
 C                    -1.85797   0.60207  -1.28606 
 C                    -3.22718   0.34413  -1.39705 
 C                    -3.88899  -0.44057  -0.47542 
 C                    -3.17532  -0.97341   0.56846 
 C                    -1.80596  -0.71674   0.6814 
 C                     1.16004  -0.71147   0.15058 
 C                     1.05086  -1.9283   -0.49474 
 C                     1.94335  -2.95253  -0.20842 
 C                     2.95757  -2.80922   0.71136 
 C                     3.06316  -1.59688   1.3516 
 C                     2.17231  -0.56602   1.06968 
 H                     0.40467   4.15651   1.67524 
 H                    -0.01024   4.99257   0.14381 
 H                     2.15671   2.69432  -1.97197 
 H                    -1.36581   1.22216  -2.02541 
 H                    -3.8064    0.75848  -2.21752 
 H                    -4.95653  -0.61677  -0.59876 
 H                    -3.69211  -1.58853   1.29163 
 H                    -1.2422   -1.13469   1.50163 
 H                     0.25247  -2.03606  -1.21649 
 H                     1.8342   -3.88965  -0.72653 
 H                     3.66219  -3.59588   0.94738 
 H                     3.84408  -1.40826   2.0954 
 H                     2.24587   0.3997    1.5708 
 
 Add atom      3 valence  3 ND=      2 dihedral       2      3      4     20
 ITRead=  0  0  0  0  0  0  0  0  0  0  0  0  0  0  0  0  0  0  0  0
 ITRead=  0  0  0  0  0  0  0  0  0  0
 MicOpt= -1 -1 -1 -1 -1 -1 -1 -1 -1 -1 -1 -1 -1 -1 -1 -1 -1 -1 -1 -1
 MicOpt= -1 -1 -1 -1 -1 -1 -1 -1 -1 -1
 NAtoms=     30 NQM=       30 NQMF=       0 NMMI=      0 NMMIF=      0
                NMic=       0 NMicF=      0.
                    Isotopes and Nuclear Properties:
 (Nuclear quadrupole moments (NQMom) in fm**2, nuclear magnetic moments (NMagM)
  in nuclear magnetons)

  Atom         1           2           3           4           5           6           7           8           9          10
 IAtWgt=          14          12          12          12          14          12          12          12          12          12
 AtmWgt=  14.0030740  12.0000000  12.0000000  12.0000000  14.0030740  12.0000000  12.0000000  12.0000000  12.0000000  12.0000000
 NucSpn=           2           0           0           0           2           0           0           0           0           0
 AtZEff=  -0.0000000  -0.0000000  -0.0000000  -0.0000000  -0.0000000  -0.0000000  -0.0000000  -0.0000000  -0.0000000  -0.0000000
 NQMom=    2.0440000   0.0000000   0.0000000   0.0000000   2.0440000   0.0000000   0.0000000   0.0000000   0.0000000   0.0000000
 NMagM=    0.4037610   0.0000000   0.0000000   0.0000000   0.4037610   0.0000000   0.0000000   0.0000000   0.0000000   0.0000000
 AtZNuc=   7.0000000   6.0000000   6.0000000   6.0000000   7.0000000   6.0000000   6.0000000   6.0000000   6.0000000   6.0000000

  Atom        11          12          13          14          15          16          17          18          19          20
 IAtWgt=          12          12          12          12          12          12          12           1           1           1
 AtmWgt=  12.0000000  12.0000000  12.0000000  12.0000000  12.0000000  12.0000000  12.0000000   1.0078250   1.0078250   1.0078250
 NucSpn=           0           0           0           0           0           0           0           1           1           1
 AtZEff=  -0.0000000  -0.0000000  -0.0000000  -0.0000000  -0.0000000  -0.0000000  -0.0000000  -0.0000000  -0.0000000  -0.0000000
 NQMom=    0.0000000   0.0000000   0.0000000   0.0000000   0.0000000   0.0000000   0.0000000   0.0000000   0.0000000   0.0000000
 NMagM=    0.0000000   0.0000000   0.0000000   0.0000000   0.0000000   0.0000000   0.0000000   2.7928460   2.7928460   2.7928460
 AtZNuc=   6.0000000   6.0000000   6.0000000   6.0000000   6.0000000   6.0000000   6.0000000   1.0000000   1.0000000   1.0000000

  Atom        21          22          23          24          25          26          27          28          29          30
 IAtWgt=           1           1           1           1           1           1           1           1           1           1
 AtmWgt=   1.0078250   1.0078250   1.0078250   1.0078250   1.0078250   1.0078250   1.0078250   1.0078250   1.0078250   1.0078250
 NucSpn=           1           1           1           1           1           1           1           1           1           1
 AtZEff=  -0.0000000  -0.0000000  -0.0000000  -0.0000000  -0.0000000  -0.0000000  -0.0000000  -0.0000000  -0.0000000  -0.0000000
 NQMom=    0.0000000   0.0000000   0.0000000   0.0000000   0.0000000   0.0000000   0.0000000   0.0000000   0.0000000   0.0000000
 NMagM=    2.7928460   2.7928460   2.7928460   2.7928460   2.7928460   2.7928460   2.7928460   2.7928460   2.7928460   2.7928460
 AtZNuc=   1.0000000   1.0000000   1.0000000   1.0000000   1.0000000   1.0000000   1.0000000   1.0000000   1.0000000   1.0000000
 Leave Link  101 at Wed May 11 06:05:11 2022, MaxMem=  6442450944 cpu:               4.0 elap:               0.3
 (Enter /mnt/gpfs3_amd/share/apps/amd/gaussian/g16-A.03/g16/l103.exe)

 GradGradGradGradGradGradGradGradGradGradGradGradGradGradGradGradGradGrad
 Berny optimization.
 Initialization pass.
                           ----------------------------
                           !    Initial Parameters    !
                           ! (Angstroms and Degrees)  !
 --------------------------                            --------------------------
 ! Name  Definition              Value          Derivative Info.                !
 --------------------------------------------------------------------------------
 ! R1    R(1,2)                  1.4103         estimate D2E/DX2                !
 ! R2    R(1,18)                 1.0326         estimate D2E/DX2                !
 ! R3    R(1,19)                 1.0327         estimate D2E/DX2                !
 ! R4    R(2,3)                  1.3933         estimate D2E/DX2                !
 ! R5    R(2,4)                  1.3518         estimate D2E/DX2                !
 ! R6    R(3,4)                  1.4079         estimate D2E/DX2                !
 ! R7    R(3,20)                 1.0831         estimate D2E/DX2                !
 ! R8    R(4,5)                  1.4299         estimate D2E/DX2                !
 ! R9    R(5,6)                  1.4149         estimate D2E/DX2                !
 ! R10   R(5,12)                 1.425          estimate D2E/DX2                !
 ! R11   R(6,7)                  1.3811         estimate D2E/DX2                !
 ! R12   R(6,11)                 1.3759         estimate D2E/DX2                !
 ! R13   R(7,8)                  1.3977         estimate D2E/DX2                !
 ! R14   R(7,21)                 1.0832         estimate D2E/DX2                !
 ! R15   R(8,9)                  1.3795         estimate D2E/DX2                !
 ! R16   R(8,22)                 1.0864         estimate D2E/DX2                !
 ! R17   R(9,10)                 1.3722         estimate D2E/DX2                !
 ! R18   R(9,23)                 1.089          estimate D2E/DX2                !
 ! R19   R(10,11)                1.3978         estimate D2E/DX2                !
 ! R20   R(10,24)                1.0809         estimate D2E/DX2                !
 ! R21   R(11,25)                1.0795         estimate D2E/DX2                !
 ! R22   R(12,13)                1.3817         estimate D2E/DX2                !
 ! R23   R(12,17)                1.375          estimate D2E/DX2                !
 ! R24   R(13,14)                1.3884         estimate D2E/DX2                !
 ! R25   R(13,26)                1.0817         estimate D2E/DX2                !
 ! R26   R(14,15)                1.3767         estimate D2E/DX2                !
 ! R27   R(14,27)                1.0764         estimate D2E/DX2                !
 ! R28   R(15,16)                1.3751         estimate D2E/DX2                !
 ! R29   R(15,28)                1.0821         estimate D2E/DX2                !
 ! R30   R(16,17)                1.3913         estimate D2E/DX2                !
 ! R31   R(16,29)                1.0948         estimate D2E/DX2                !
 ! R32   R(17,30)                1.0905         estimate D2E/DX2                !
 ! A1    A(2,1,18)             120.0809         estimate D2E/DX2                !
 ! A2    A(2,1,19)             119.3772         estimate D2E/DX2                !
 ! A3    A(18,1,19)            120.5419         estimate D2E/DX2                !
 ! A4    A(1,2,3)              145.5691         estimate D2E/DX2                !
 ! A5    A(1,2,4)              152.741          estimate D2E/DX2                !
 ! A6    A(2,3,20)             150.4994         estimate D2E/DX2                !
 ! A7    A(4,3,20)             151.797          estimate D2E/DX2                !
 ! A8    A(2,4,5)              154.802          estimate D2E/DX2                !
 ! A9    A(3,4,5)              144.5915         estimate D2E/DX2                !
 ! A10   A(4,5,6)              117.6596         estimate D2E/DX2                !
 ! A11   A(4,5,12)             122.3936         estimate D2E/DX2                !
 ! A12   A(6,5,12)             119.9468         estimate D2E/DX2                !
 ! A13   A(5,6,7)              118.8175         estimate D2E/DX2                !
 ! A14   A(5,6,11)             122.7069         estimate D2E/DX2                !
 ! A15   A(7,6,11)             118.4756         estimate D2E/DX2                !
 ! A16   A(6,7,8)              119.8222         estimate D2E/DX2                !
 ! A17   A(6,7,21)             120.4072         estimate D2E/DX2                !
 ! A18   A(8,7,21)             119.7706         estimate D2E/DX2                !
 ! A19   A(7,8,9)              121.4577         estimate D2E/DX2                !
 ! A20   A(7,8,22)             120.7872         estimate D2E/DX2                !
 ! A21   A(9,8,22)             117.7551         estimate D2E/DX2                !
 ! A22   A(8,9,10)             118.6588         estimate D2E/DX2                !
 ! A23   A(8,9,23)             119.1208         estimate D2E/DX2                !
 ! A24   A(10,9,23)            122.2204         estimate D2E/DX2                !
 ! A25   A(9,10,11)            119.9788         estimate D2E/DX2                !
 ! A26   A(9,10,24)            118.7681         estimate D2E/DX2                !
 ! A27   A(11,10,24)           121.2531         estimate D2E/DX2                !
 ! A28   A(6,11,10)            121.6068         estimate D2E/DX2                !
 ! A29   A(6,11,25)            118.2654         estimate D2E/DX2                !
 ! A30   A(10,11,25)           120.1277         estimate D2E/DX2                !
 ! A31   A(5,12,13)            120.1809         estimate D2E/DX2                !
 ! A32   A(5,12,17)            122.2039         estimate D2E/DX2                !
 ! A33   A(13,12,17)           117.6151         estimate D2E/DX2                !
 ! A34   A(12,13,14)           120.1719         estimate D2E/DX2                !
 ! A35   A(12,13,26)           117.2392         estimate D2E/DX2                !
 ! A36   A(14,13,26)           122.5889         estimate D2E/DX2                !
 ! A37   A(13,14,15)           122.3155         estimate D2E/DX2                !
 ! A38   A(13,14,27)           118.5441         estimate D2E/DX2                !
 ! A39   A(15,14,27)           119.1404         estimate D2E/DX2                !
 ! A40   A(14,15,16)           117.3509         estimate D2E/DX2                !
 ! A41   A(14,15,28)           123.3506         estimate D2E/DX2                !
 ! A42   A(16,15,28)           119.2985         estimate D2E/DX2                !
 ! A43   A(15,16,17)           120.6459         estimate D2E/DX2                !
 ! A44   A(15,16,29)           121.5331         estimate D2E/DX2                !
 ! A45   A(17,16,29)           117.8209         estimate D2E/DX2                !
 ! A46   A(12,17,16)           121.9006         estimate D2E/DX2                !
 ! A47   A(12,17,30)           116.7769         estimate D2E/DX2                !
 ! A48   A(16,17,30)           121.3225         estimate D2E/DX2                !
 ! D1    D(18,1,2,3)          -129.1751         estimate D2E/DX2                !
 ! D2    D(18,1,2,4)            50.8249         estimate D2E/DX2                !
 ! D3    D(19,1,2,3)            50.8253         estimate D2E/DX2                !
 ! D4    D(19,1,2,4)          -129.1748         estimate D2E/DX2                !
 ! D5    D(1,2,3,20)             0.0            estimate D2E/DX2                !
 ! D6    D(1,2,4,5)              0.0            estimate D2E/DX2                !
 ! D7    D(2,3,4,20)          -180.0            estimate D2E/DX2                !
 ! D8    D(20,3,4,5)             0.0            estimate D2E/DX2                !
 ! D9    D(2,4,5,6)             60.0004         estimate D2E/DX2                !
 ! D10   D(2,4,5,12)          -119.9996         estimate D2E/DX2                !
 ! D11   D(3,4,5,6)           -119.9996         estimate D2E/DX2                !
 ! D12   D(3,4,5,12)            60.0003         estimate D2E/DX2                !
 ! D13   D(4,5,6,7)             45.0            estimate D2E/DX2                !
 ! D14   D(4,5,6,11)          -134.9998         estimate D2E/DX2                !
 ! D15   D(12,5,6,7)          -134.9999         estimate D2E/DX2                !
 ! D16   D(12,5,6,11)           45.0002         estimate D2E/DX2                !
 ! D17   D(4,5,12,13)         -134.9997         estimate D2E/DX2                !
 ! D18   D(4,5,12,17)           45.0006         estimate D2E/DX2                !
 ! D19   D(6,5,12,13)           45.0002         estimate D2E/DX2                !
 ! D20   D(6,5,12,17)         -134.9994         estimate D2E/DX2                !
 ! D21   D(5,6,7,8)           -179.9998         estimate D2E/DX2                !
 ! D22   D(5,6,7,21)            -0.0001         estimate D2E/DX2                !
 ! D23   D(11,6,7,8)             0.0            estimate D2E/DX2                !
 ! D24   D(11,6,7,21)          179.9998         estimate D2E/DX2                !
 ! D25   D(5,6,11,10)          179.9998         estimate D2E/DX2                !
 ! D26   D(5,6,11,25)            0.0            estimate D2E/DX2                !
 ! D27   D(7,6,11,10)            0.0            estimate D2E/DX2                !
 ! D28   D(7,6,11,25)         -179.9999         estimate D2E/DX2                !
 ! D29   D(6,7,8,9)              0.0            estimate D2E/DX2                !
 ! D30   D(6,7,8,22)           179.9999         estimate D2E/DX2                !
 ! D31   D(21,7,8,9)          -179.9997         estimate D2E/DX2                !
 ! D32   D(21,7,8,22)            0.0002         estimate D2E/DX2                !
 ! D33   D(7,8,9,10)             0.0            estimate D2E/DX2                !
 ! D34   D(7,8,9,23)           179.9995         estimate D2E/DX2                !
 ! D35   D(22,8,9,10)         -180.0            estimate D2E/DX2                !
 ! D36   D(22,8,9,23)           -0.0004         estimate D2E/DX2                !
 ! D37   D(8,9,10,11)            0.0            estimate D2E/DX2                !
 ! D38   D(8,9,10,24)         -179.9999         estimate D2E/DX2                !
 ! D39   D(23,9,10,11)        -179.9995         estimate D2E/DX2                !
 ! D40   D(23,9,10,24)           0.0006         estimate D2E/DX2                !
 ! D41   D(9,10,11,6)            0.0            estimate D2E/DX2                !
 ! D42   D(9,10,11,25)         179.9998         estimate D2E/DX2                !
 ! D43   D(24,10,11,6)         179.9999         estimate D2E/DX2                !
 ! D44   D(24,10,11,25)         -0.0003         estimate D2E/DX2                !
 ! D45   D(5,12,13,14)        -179.9996         estimate D2E/DX2                !
 ! D46   D(5,12,13,26)           0.0004         estimate D2E/DX2                !
 ! D47   D(17,12,13,14)          0.0001         estimate D2E/DX2                !
 ! D48   D(17,12,13,26)       -180.0            estimate D2E/DX2                !
 ! D49   D(5,12,17,16)         179.9997         estimate D2E/DX2                !
 ! D50   D(5,12,17,30)          -0.0003         estimate D2E/DX2                !
 ! D51   D(13,12,17,16)          0.0            estimate D2E/DX2                !
 ! D52   D(13,12,17,30)       -179.9999         estimate D2E/DX2                !
 ! D53   D(12,13,14,15)         -0.0001         estimate D2E/DX2                !
 ! D54   D(12,13,14,27)       -179.9996         estimate D2E/DX2                !
 ! D55   D(26,13,14,15)        179.9999         estimate D2E/DX2                !
 ! D56   D(26,13,14,27)          0.0004         estimate D2E/DX2                !
 ! D57   D(13,14,15,16)          0.0001         estimate D2E/DX2                !
 ! D58   D(13,14,15,28)       -179.9998         estimate D2E/DX2                !
 ! D59   D(27,14,15,16)        179.9996         estimate D2E/DX2                !
 ! D60   D(27,14,15,28)         -0.0003         estimate D2E/DX2                !
 ! D61   D(14,15,16,17)         -0.0001         estimate D2E/DX2                !
 ! D62   D(14,15,16,29)        179.9994         estimate D2E/DX2                !
 ! D63   D(28,15,16,17)        179.9998         estimate D2E/DX2                !
 ! D64   D(28,15,16,29)         -0.0007         estimate D2E/DX2                !
 ! D65   D(15,16,17,12)          0.0            estimate D2E/DX2                !
 ! D66   D(15,16,17,30)        179.9999         estimate D2E/DX2                !
 ! D67   D(29,16,17,12)       -179.9995         estimate D2E/DX2                !
 ! D68   D(29,16,17,30)          0.0004         estimate D2E/DX2                !
 --------------------------------------------------------------------------------
 Trust Radius=3.00D-01 FncErr=1.00D-07 GrdErr=1.00D-06 EigMax=2.50D+02 EigMin=1.00D-04
 Number of steps in this run=    158 maximum allowed number of steps=    180.
 GradGradGradGradGradGradGradGradGradGradGradGradGradGradGradGradGradGrad

 Leave Link  103 at Wed May 11 06:05:11 2022, MaxMem=  6442450944 cpu:               0.1 elap:               0.0
 (Enter /mnt/gpfs3_amd/share/apps/amd/gaussian/g16-A.03/g16/l202.exe)
                          Input orientation:                          
 ---------------------------------------------------------------------
 Center     Atomic      Atomic             Coordinates (Angstroms)
 Number     Number       Type             X           Y           Z
 ---------------------------------------------------------------------
      1          7           0        0.333762    4.157815    0.645095
      2          6           0        0.707760    3.014278   -0.090620
      3          6           0        1.467998    2.528881   -1.152582
      4          6           0        0.668485    1.689002   -0.354088
      5          7           0        0.244077    0.339947   -0.143144
      6          6           0       -1.140873    0.065116   -0.234857
      7          6           0       -1.857971    0.602073   -1.286055
      8          6           0       -3.227183    0.344125   -1.397051
      9          6           0       -3.888993   -0.440571   -0.475421
     10          6           0       -3.175319   -0.973413    0.568464
     11          6           0       -1.805960   -0.716742    0.681401
     12          6           0        1.160043   -0.711465    0.150577
     13          6           0        1.050865   -1.928304   -0.494735
     14          6           0        1.943352   -2.952527   -0.208423
     15          6           0        2.957570   -2.809216    0.711355
     16          6           0        3.063161   -1.596884    1.351595
     17          6           0        2.172311   -0.566018    1.069685
     18          1           0        0.404668    4.156511    1.675244
     19          1           0       -0.010236    4.992570    0.143809
     20          1           0        2.156712    2.694321   -1.971971
     21          1           0       -1.365805    1.222156   -2.025413
     22          1           0       -3.806399    0.758476   -2.217515
     23          1           0       -4.956527   -0.616774   -0.598758
     24          1           0       -3.692109   -1.588525    1.291629
     25          1           0       -1.242201   -1.134689    1.501629
     26          1           0        0.252470   -2.036058   -1.216488
     27          1           0        1.834199   -3.889648   -0.726531
     28          1           0        3.662191   -3.595875    0.947383
     29          1           0        3.844079   -1.408261    2.095404
     30          1           0        2.245873    0.399700    1.570799
 ---------------------------------------------------------------------
                    Distance matrix (angstroms):
                    1          2          3          4          5
     1  N    0.000000
     2  C    1.410258   0.000000
     3  C    2.677977   1.393318   0.000000
     4  C    2.684296   1.351782   1.407910   0.000000
     5  N    3.899420   2.714739   2.703402   1.429884   0.000000
     6  C    4.438361   3.483648   3.703858   2.434132   1.414931
     7  C    4.601775   3.718975   3.846099   2.903955   2.406982
     8  C    5.603117   4.931557   5.184366   4.251199   3.690792
     9  C    6.342899   5.763175   6.162268   5.031939   4.219228
    10  C    6.216834   5.604853   6.065349   4.765961   3.731430
    11  C    5.323630   4.564572   4.961488   3.603154   2.449310
    12  C    4.963585   3.760837   3.506123   2.501711   1.425038
    13  C    6.233321   4.970930   4.524739   3.640178   2.432999
    14  C    7.340043   6.094533   5.582404   4.815630   3.705696
    15  C    7.445017   6.294274   5.847082   5.158395   4.243871
    16  C    6.408223   5.375008   5.083049   4.409181   3.732666
    17  C    5.086761   4.038532   3.874652   3.061656   2.451492
    18  H    1.032587   2.124814   3.431683   3.205681   4.230660
    19  H    1.032685   2.117573   3.152074   3.409124   4.668396
    20  H    3.509130   2.396104   1.083095   2.417236   3.542013
    21  H    4.317202   3.354817   3.240340   2.673875   2.629249
    22  H    6.073794   5.476309   5.664599   4.935871   4.569960
    23  H    7.234019   6.747362   7.174705   6.084178   5.307465
    24  H    7.045997   6.515770   7.039453   5.697837   4.612064
    25  H    5.588194   4.852992   5.273686   3.881705   2.662490
    26  H    6.468088   5.194301   4.724432   3.846151   2.607209
    27  H    8.300261   7.024062   6.443069   5.711299   4.556128
    28  H    8.443313   7.314386   6.836444   6.211765   5.325734
    29  H    6.738466   5.845857   5.629943   5.067292   4.585558
    30  H    4.317004   3.458630   3.543347   2.802792   2.635974
                    6          7          8          9         10
     6  C    0.000000
     7  C    1.381148   0.000000
     8  C    2.404419   1.397712   0.000000
     9  C    2.804595   2.422661   1.379544   0.000000
    10  C    2.421330   2.767093   2.366822   1.372205   0.000000
    11  C    1.375926   2.369148   2.732266   2.398653   1.397776
    12  C    2.458831   3.591337   4.770448   5.094902   4.363326
    13  C    2.974050   3.935775   4.927454   5.159062   4.461260
    14  C    4.315010   5.314746   6.246214   6.355900   5.542674
    15  C    5.094540   6.230247   7.255350   7.341277   6.403352
    16  C    4.790926   6.000846   7.133793   7.280624   6.318278
    17  C    3.616262   4.812185   6.005638   6.256396   5.386496
    18  H    4.772494   5.150035   6.096198   6.647860   6.352747
    19  H    5.069668   4.973439   5.859269   6.704269   6.766907
    20  H    4.561179   4.578828   5.902566   6.972644   6.952455
    21  H    2.143695   1.083227   2.151861   3.396117   3.850073
    22  H    3.393628   2.165283   1.086434   2.116466   3.340566
    23  H    3.893150   3.399855   2.133361   1.088985   2.159236
    24  H    3.401984   3.848017   3.343694   2.116371   1.080927
    25  H    2.113098   3.341661   3.811744   3.375801   2.152615
    26  H    2.705538   3.379132   4.219699   4.499608   4.008117
    27  H    4.973224   5.841296   6.632648   6.686861   5.939420
    28  H    6.153858   7.285822   8.275472   8.306666   7.332969
    29  H    5.696552   6.927415   8.079037   8.206459   7.196707
    30  H    3.852582   5.004409   6.226200   6.521476   5.681500
                   11         12         13         14         15
    11  C    0.000000
    12  C    3.013134   0.000000
    13  C    3.318528   1.381682   0.000000
    14  C    4.455094   2.401002   1.388359   0.000000
    15  C    5.202938   2.818889   2.422020   1.376651   0.000000
    16  C    4.993210   2.418319   2.751020   2.350616   1.375066
    17  C    4.000015   1.374991   2.358151   2.716875   2.403533
    18  H    5.442719   5.156781   6.492407   7.513599   7.481159
    19  H    6.009149   5.822853   7.030802   8.189331   8.366472
    20  H    5.863318   4.134965   4.977327   5.919672   6.174992
    21  H    3.358557   3.854054   4.255428   5.628495   6.514095
    22  H    3.818604   5.695097   5.812037   7.132155   8.188894
    23  H    3.402187   6.163027   6.149772   7.294959   8.316016
    24  H    2.165627   5.061088   5.079601   5.989080   6.785649
    25  H    1.079480   2.788411   3.142204   4.046796   4.589842
    26  H    3.095111   2.108815   1.081653   2.171449   3.410560
    27  H    5.029947   3.365212   2.124667   1.076358   2.120569
    28  H    6.185534   3.900701   3.417531   2.168915   1.082142
    29  H    5.865198   3.387023   3.844647   3.362312   2.159668
    30  H    4.295908   2.104933   3.333778   3.807174   3.397396
                   16         17         18         19         20
    16  C    0.000000
    17  C    1.391320   0.000000
    18  H    6.346171   5.078734   0.000000
    19  H    7.370578   6.043067   1.793442   0.000000
    20  H    5.502925   4.458893   4.302306   3.801860   0.000000
    21  H    6.242348   5.029459   5.043796   4.556217   3.818148
    22  H    8.091793   6.950176   6.665831   6.157455   6.274271
    23  H    8.311431   7.321653   7.529791   7.515447   7.965377
    24  H    6.755541   5.957030   7.066554   7.627876   7.950004
    25  H    4.332699   3.488389   5.544287   6.395679   6.187069
    26  H    3.832481   3.327671   6.836168   7.163870   5.154937
    27  H    3.329523   3.793050   8.517791   9.113354   6.708486
    28  H    2.125603   3.378570   8.440422   9.375171   7.096172
    29  H    1.094835   2.134545   6.555362   7.722377   6.018465
    30  H    2.168492   1.090476   4.185042   5.312324   4.221902
                   21         22         23         24         25
    21  H    0.000000
    22  H    2.491666   0.000000
    23  H    4.279053   2.415467   0.000000
    24  H    4.930962   4.223218   2.473179   0.000000
    25  H    4.243822   4.898083   4.298381   2.500423   0.000000
    26  H    3.726813   5.028508   5.434115   4.695811   3.230274
    27  H    6.169089   7.459520   7.539363   6.317295   4.692412
    28  H    7.571769   9.206345   9.249210   7.631100   5.515223
    29  H    7.144447   9.045763   9.237728   7.581074   5.128124
    30  H    5.162692   7.149129   7.590439   6.268222   3.811272
                   26         27         28         29         30
    26  H    0.000000
    27  H    2.485502   0.000000
    28  H    4.329153   2.495966   0.000000
    29  H    4.925689   4.261481   2.477234   0.000000
    30  H    4.204229   4.883207   4.284766   2.469453   0.000000
 Stoichiometry    C15H13N2(3+)
 Framework group  C1[X(C15H13N2)]
 Deg. of freedom    84
 Full point group                 C1      NOp   1
 Largest Abelian subgroup         C1      NOp   1
 Largest concise Abelian subgroup C1      NOp   1
                         Standard orientation:                         
 ---------------------------------------------------------------------
 Center     Atomic      Atomic             Coordinates (Angstroms)
 Number     Number       Type             X           Y           Z
 ---------------------------------------------------------------------
      1          7           0       -1.701913    3.713558    0.897606
      2          6           0       -0.944687    2.899855    0.029663
      3          6           0       -0.254000    2.840005   -1.178933
      4          6           0       -0.357327    1.732423   -0.315917
      5          7           0        0.004562    0.361546   -0.130713
      6          6           0       -1.041632   -0.582303   -0.001645
      7          6           0       -2.110996   -0.514170   -0.873073
      8          6           0       -3.155989   -1.436013   -0.764471
      9          6           0       -3.148366   -2.422652    0.199701
     10          6           0       -2.085313   -2.489189    1.064824
     11          6           0       -1.039194   -1.568316    0.958014
     12          6           0        1.361889   -0.068789   -0.074069
     13          6           0        1.765258   -1.188990   -0.775130
     14          6           0        3.087694   -1.608085   -0.719803
     15          6           0        4.040057   -0.943335    0.019306
     16          6           0        3.635003    0.171023    0.715684
     17          6           0        2.311405    0.596788    0.664869
     18          1           0       -1.451803    3.776814    1.897446
     19          1           0       -2.505699    4.242897    0.523218
     20          1           0        0.092486    3.310365   -2.090966
     21          1           0       -2.145042    0.249508   -1.640548
     22          1           0       -4.004698   -1.396852   -1.441597
     23          1           0       -3.982465   -3.120964    0.249978
     24          1           0       -2.077525   -3.261567    1.820981
     25          1           0       -0.201750   -1.618445    1.637316
     26          1           0        1.013425   -1.707865   -1.354343
     27          1           0        3.373304   -2.484124   -1.276157
     28          1           0        5.074873   -1.255038    0.074346
     29          1           0        4.335335    0.751186    1.325282
     30          1           0        1.978214    1.478849    1.212673
 ---------------------------------------------------------------------
 Rotational constants (GHZ):           0.5601950           0.4046814           0.2648941
 Leave Link  202 at Wed May 11 06:05:11 2022, MaxMem=  6442450944 cpu:               0.1 elap:               0.0
 (Enter /mnt/gpfs3_amd/share/apps/amd/gaussian/g16-A.03/g16/l301.exe)
 Standard basis: def2SVP (5D, 7F)
 Ernie: Thresh=  0.10000D-02 Tol=  0.10000D-05 Strict=F.
 There are   320 symmetry adapted cartesian basis functions of A   symmetry.
 There are   303 symmetry adapted basis functions of A   symmetry.
   303 basis functions,   516 primitive gaussians,   320 cartesian basis functions
    57 alpha electrons       57 beta electrons
       nuclear repulsion energy      1076.6785854109 Hartrees.
 IExCor=33909 DFT=T Ex+Corr=LC-wHPBE ExCW=0 ScaHFX=  1.000000
 ScaDFX=  1.000000  1.000000  1.000000  1.000000 ScalE2=  1.000000  1.000000
 IRadAn=      5 IRanWt=     -1 IRanGd=            0 ICorTp=0 IEmpDi=  4
 HFx  wShort=  0.000000 wLong=  0.225700 cFull=  0.000000 cShort=  0.000000 cLong=  1.000000
 DFx  wShort=  0.000000 wLong=  0.225700 cFull=  0.000000 cShort=  1.000000 cLong=  0.000000
 NAtoms=   30 NActive=   30 NUniq=   30 SFac= 1.00D+00 NAtFMM=   60 NAOKFM=F Big=F
 Integral buffers will be    131072 words long.
 Raffenetti 2 integral format.
 Two-electron integral symmetry is turned on.
 Leave Link  301 at Wed May 11 06:05:11 2022, MaxMem=  6442450944 cpu:               0.3 elap:               0.0
 (Enter /mnt/gpfs3_amd/share/apps/amd/gaussian/g16-A.03/g16/l302.exe)
 NPDir=0 NMtPBC=     1 NCelOv=     1 NCel=       1 NClECP=     1 NCelD=      1
         NCelK=      1 NCelE2=     1 NClLst=     1 CellRange=     0.0.
 One-electron integrals computed using PRISM.
 One-electron integral symmetry used in STVInt
   1 Symmetry operations used in ECPInt.
 ECPInt:  NShTT=   10011 NPrTT=   36575 LenC2=    9378 LenP2D=   24388.
 LDataN:  DoStor=T MaxTD1= 4 Len=   56
 NBasis=   303 RedAO= T EigKep=  2.29D-04  NBF=   303
 NBsUse=   303 1.00D-06 EigRej= -1.00D+00 NBFU=   303
 Precomputing XC quadrature grid using
 IXCGrd= 4 IRadAn=           5 IRanWt=          -1 IRanGd=           0 AccXCQ= 0.00D+00.
 Generated NRdTot=       0 NPtTot=           0 NUsed=           0 NTot=          32
 NSgBfM=   319   319   319   319   319 MxSgAt=    30 MxSgA2=    30.
 Leave Link  302 at Wed May 11 06:05:12 2022, MaxMem=  6442450944 cpu:               8.5 elap:               0.6
 (Enter /mnt/gpfs3_amd/share/apps/amd/gaussian/g16-A.03/g16/l303.exe)
 DipDrv:  MaxL=1.
 Leave Link  303 at Wed May 11 06:05:12 2022, MaxMem=  6442450944 cpu:               0.5 elap:               0.0
 (Enter /mnt/gpfs3_amd/share/apps/amd/gaussian/g16-A.03/g16/l401.exe)
 ExpMin= 1.22D-01 ExpMax= 1.71D+03 ExpMxC= 2.58D+02 IAcc=3 IRadAn=         5 AccDes= 0.00D+00
 Harris functional with IExCor=33909 and IRadAn=       5 diagonalized for initial guess.
 HarFok:  IExCor=33909 AccDes= 0.00D+00 IRadAn=         5 IDoV= 1 UseB2=F ITyADJ=14
 ICtDFT=  3500011 ScaDFX=  1.000000  1.000000  1.000000  1.000000
 FoFCou: FMM=F IPFlag=           0 FMFlag=      100000 FMFlg1=           0
         NFxFlg=           0 DoJE=T BraDBF=F KetDBF=T FulRan=T
         wScrn=  0.000000 ICntrl=       500 IOpCl=  0 I1Cent=   200000004 NGrid=           0
         NMat0=    1 NMatS0=      1 NMatT0=    0 NMatD0=    1 NMtDS0=    0 NMtDT0=    0
 Petite list used in FoFCou.
 Harris En= -673.310481637767    
 JPrj=0 DoOrth=F DoCkMO=F.
 Leave Link  401 at Wed May 11 06:05:15 2022, MaxMem=  6442450944 cpu:              48.0 elap:               3.1
 (Enter /mnt/gpfs3_amd/share/apps/amd/gaussian/g16-A.03/g16/l502.exe)
 Integral symmetry usage will be decided dynamically.
 Closed shell SCF:
 Using DIIS extrapolation, IDIIS=  1040.
 NGot=  6442450944 LenX=  6442237618 LenY=  6442134777
 Requested convergence on RMS density matrix=1.00D-08 within 512 cycles.
 Requested convergence on MAX density matrix=1.00D-06.
 Requested convergence on             energy=1.00D-06.
 No special actions if energy rises.
 Fock matrices will be formed incrementally for  20 cycles.
 Integral accuracy reduced to 1.0D-05 until final iterations.

 Cycle   1  Pass 0  IDiag  1:
 FoFJK:  IHMeth= 1 ICntrl=       0 DoSepK=T KAlg= 0 I1Cent=           0 FoldK=F
 IRaf=         1 NMat=       1 IRICut=       1 DoRegI=T DoRafI=F ISym2E= 0 IDoP0=0 IntGTp=1.
 FoFCou: FMM=F IPFlag=           0 FMFlag=      100000 FMFlg1=           0
         NFxFlg=           0 DoJE=T BraDBF=F KetDBF=F FulRan=T
         wScrn=  0.000000 ICntrl=       500 IOpCl=  0 I1Cent=           0 NGrid=           0
         NMat0=    1 NMatS0=      1 NMatT0=    0 NMatD0=    1 NMtDS0=    0 NMtDT0=    0
 Symmetry not used in FoFCou.
 E= -685.939927389203    
 DIIS: error= 4.16D-02 at cycle   1 NSaved=   1.
 NSaved= 1 IEnMin= 1 EnMin= -685.939927389203     IErMin= 1 ErrMin= 4.16D-02
 ErrMax= 4.16D-02  0.00D+00 EMaxC= 1.00D-01 BMatC= 4.36D-01 BMatP= 4.36D-01
 IDIUse=3 WtCom= 5.84D-01 WtEn= 4.16D-01
 Coeff-Com:  0.100D+01
 Coeff-En:   0.100D+01
 Coeff:      0.100D+01
 Gap=    -0.055 Goal=   None    Shift=    0.000
 GapD=   -0.055 DampG=0.250 DampE=0.500 DampFc=0.2500 IDamp=-1.
 Damping current iteration by 2.50D-01
 RMSDP=8.01D-03 MaxDP=4.64D-01              OVMax= 6.19D-01

 Cycle   2  Pass 0  IDiag  1:
 RMSU=  1.99D-03    CP:  9.87D-01
 E= -686.097038086718     Delta-E=       -0.157110697515 Rises=F Damp=T
 DIIS: error= 1.07D-02 at cycle   2 NSaved=   2.
 NSaved= 2 IEnMin= 2 EnMin= -686.097038086718     IErMin= 2 ErrMin= 1.07D-02
 ErrMax= 1.07D-02  0.00D+00 EMaxC= 1.00D-01 BMatC= 3.93D-02 BMatP= 4.36D-01
 IDIUse=3 WtCom= 8.93D-01 WtEn= 1.07D-01
 Coeff-Com: -0.213D+00 0.121D+01
 Coeff-En:   0.137D+00 0.863D+00
 Coeff:     -0.176D+00 0.118D+01
 Gap=     0.086 Goal=   None    Shift=    0.000
 RMSDP=2.39D-03 MaxDP=6.31D-02 DE=-1.57D-01 OVMax= 4.90D-01

 Cycle   3  Pass 0  IDiag  1:
 RMSU=  2.17D-03    CP:  9.56D-01  1.39D+00
 E= -686.441663611733     Delta-E=       -0.344625525015 Rises=F Damp=F
 DIIS: error= 5.10D-03 at cycle   3 NSaved=   3.
 NSaved= 3 IEnMin= 3 EnMin= -686.441663611733     IErMin= 3 ErrMin= 5.10D-03
 ErrMax= 5.10D-03  0.00D+00 EMaxC= 1.00D-01 BMatC= 1.80D-02 BMatP= 3.93D-02
 IDIUse=3 WtCom= 9.49D-01 WtEn= 5.10D-02
 Coeff-Com: -0.904D-01 0.523D+00 0.568D+00
 Coeff-En:   0.000D+00 0.000D+00 0.100D+01
 Coeff:     -0.858D-01 0.496D+00 0.590D+00
 Gap=     0.150 Goal=   None    Shift=    0.000
 RMSDP=6.00D-04 MaxDP=1.79D-02 DE=-3.45D-01 OVMax= 6.74D-02

 Cycle   4  Pass 0  IDiag  1:
 RMSU=  5.91D-04    CP:  9.59D-01  1.38D+00  9.61D-01
 E= -686.459103493676     Delta-E=       -0.017439881943 Rises=F Damp=F
 DIIS: error= 2.16D-03 at cycle   4 NSaved=   4.
 NSaved= 4 IEnMin= 4 EnMin= -686.459103493676     IErMin= 4 ErrMin= 2.16D-03
 ErrMax= 2.16D-03  0.00D+00 EMaxC= 1.00D-01 BMatC= 2.95D-03 BMatP= 1.80D-02
 IDIUse=3 WtCom= 9.78D-01 WtEn= 2.16D-02
 Coeff-Com: -0.285D-02 0.478D-01 0.266D+00 0.689D+00
 Coeff-En:   0.000D+00 0.000D+00 0.106D-01 0.989D+00
 Coeff:     -0.279D-02 0.468D-01 0.260D+00 0.696D+00
 Gap=     0.158 Goal=   None    Shift=    0.000
 RMSDP=3.04D-04 MaxDP=1.35D-02 DE=-1.74D-02 OVMax= 3.08D-02

 Cycle   5  Pass 0  IDiag  1:
 RMSU=  2.53D-04    CP:  9.58D-01  1.33D+00  1.01D+00  8.44D-01
 E= -686.463444167316     Delta-E=       -0.004340673640 Rises=F Damp=F
 DIIS: error= 1.07D-03 at cycle   5 NSaved=   5.
 NSaved= 5 IEnMin= 5 EnMin= -686.463444167316     IErMin= 5 ErrMin= 1.07D-03
 ErrMax= 1.07D-03  0.00D+00 EMaxC= 1.00D-01 BMatC= 5.77D-04 BMatP= 2.95D-03
 IDIUse=3 WtCom= 9.89D-01 WtEn= 1.07D-02
 Coeff-Com:  0.215D-01-0.577D-01 0.129D-02 0.280D+00 0.755D+00
 Coeff-En:   0.000D+00 0.000D+00 0.000D+00 0.000D+00 0.100D+01
 Coeff:      0.212D-01-0.571D-01 0.128D-02 0.277D+00 0.757D+00
 Gap=     0.162 Goal=   None    Shift=    0.000
 RMSDP=1.46D-04 MaxDP=3.95D-03 DE=-4.34D-03 OVMax= 1.64D-02

 Cycle   6  Pass 0  IDiag  1:
 RMSU=  1.08D-04    CP:  9.57D-01  1.32D+00  1.02D+00  9.79D-01  1.12D+00
 E= -686.464364453830     Delta-E=       -0.000920286514 Rises=F Damp=F
 DIIS: error= 4.64D-04 at cycle   6 NSaved=   6.
 NSaved= 6 IEnMin= 6 EnMin= -686.464364453830     IErMin= 6 ErrMin= 4.64D-04
 ErrMax= 4.64D-04  0.00D+00 EMaxC= 1.00D-01 BMatC= 1.36D-04 BMatP= 5.77D-04
 IDIUse=3 WtCom= 9.95D-01 WtEn= 4.64D-03
 Coeff-Com:  0.181D-01-0.450D-01-0.642D-01-0.165D-01 0.355D+00 0.753D+00
 Coeff-En:   0.000D+00 0.000D+00 0.000D+00 0.000D+00 0.000D+00 0.100D+01
 Coeff:      0.180D-01-0.448D-01-0.639D-01-0.164D-01 0.353D+00 0.754D+00
 Gap=     0.163 Goal=   None    Shift=    0.000
 RMSDP=8.31D-05 MaxDP=2.06D-03 DE=-9.20D-04 OVMax= 9.78D-03

 Cycle   7  Pass 0  IDiag  1:
 RMSU=  5.59D-05    CP:  9.57D-01  1.30D+00  1.03D+00  1.00D+00  1.34D+00
                    CP:  1.02D+00
 E= -686.464631806844     Delta-E=       -0.000267353014 Rises=F Damp=F
 DIIS: error= 2.45D-04 at cycle   7 NSaved=   7.
 NSaved= 7 IEnMin= 7 EnMin= -686.464631806844     IErMin= 7 ErrMin= 2.45D-04
 ErrMax= 2.45D-04  0.00D+00 EMaxC= 1.00D-01 BMatC= 2.92D-05 BMatP= 1.36D-04
 IDIUse=3 WtCom= 9.98D-01 WtEn= 2.45D-03
 Coeff-Com:  0.771D-02-0.115D-01-0.208D-01-0.416D-01 0.822D-02 0.325D+00
 Coeff-Com:  0.733D+00
 Coeff-En:   0.000D+00 0.000D+00 0.000D+00 0.000D+00 0.000D+00 0.000D+00
 Coeff-En:   0.100D+01
 Coeff:      0.769D-02-0.115D-01-0.207D-01-0.415D-01 0.820D-02 0.324D+00
 Coeff:      0.734D+00
 Gap=     0.162 Goal=   None    Shift=    0.000
 RMSDP=3.87D-05 MaxDP=1.22D-03 DE=-2.67D-04 OVMax= 6.14D-03

 Cycle   8  Pass 0  IDiag  1:
 RMSU=  2.55D-05    CP:  9.57D-01  1.30D+00  1.03D+00  1.02D+00  1.38D+00
                    CP:  1.21D+00  1.17D+00
 E= -686.464707583558     Delta-E=       -0.000075776714 Rises=F Damp=F
 DIIS: error= 2.00D-04 at cycle   8 NSaved=   8.
 NSaved= 8 IEnMin= 8 EnMin= -686.464707583558     IErMin= 8 ErrMin= 2.00D-04
 ErrMax= 2.00D-04  0.00D+00 EMaxC= 1.00D-01 BMatC= 7.68D-06 BMatP= 2.92D-05
 IDIUse=3 WtCom= 9.98D-01 WtEn= 2.00D-03
 Coeff-Com:  0.189D-02 0.107D-02 0.335D-02-0.103D-01-0.712D-01-0.123D-01
 Coeff-Com:  0.319D+00 0.769D+00
 Coeff-En:   0.000D+00 0.000D+00 0.000D+00 0.000D+00 0.000D+00 0.000D+00
 Coeff-En:   0.000D+00 0.100D+01
 Coeff:      0.189D-02 0.106D-02 0.334D-02-0.103D-01-0.710D-01-0.123D-01
 Coeff:      0.318D+00 0.769D+00
 Gap=     0.162 Goal=   None    Shift=    0.000
 RMSDP=2.62D-05 MaxDP=7.05D-04 DE=-7.58D-05 OVMax= 6.29D-03

 Cycle   9  Pass 0  IDiag  1:
 RMSU=  1.34D-05    CP:  9.57D-01  1.30D+00  1.03D+00  1.02D+00  1.41D+00
                    CP:  1.28D+00  1.46D+00  1.36D+00
 E= -686.464744255552     Delta-E=       -0.000036671994 Rises=F Damp=F
 DIIS: error= 1.57D-04 at cycle   9 NSaved=   9.
 NSaved= 9 IEnMin= 9 EnMin= -686.464744255552     IErMin= 9 ErrMin= 1.57D-04
 ErrMax= 1.57D-04  0.00D+00 EMaxC= 1.00D-01 BMatC= 2.10D-06 BMatP= 7.68D-06
 IDIUse=3 WtCom= 9.98D-01 WtEn= 1.57D-03
 Coeff-Com: -0.355D-04 0.151D-02 0.482D-02 0.784D-02-0.310D-01-0.662D-01
 Coeff-Com: -0.340D-01 0.218D+00 0.899D+00
 Coeff-En:   0.000D+00 0.000D+00 0.000D+00 0.000D+00 0.000D+00 0.000D+00
 Coeff-En:   0.000D+00 0.000D+00 0.100D+01
 Coeff:     -0.354D-04 0.151D-02 0.482D-02 0.783D-02-0.309D-01-0.661D-01
 Coeff:     -0.340D-01 0.218D+00 0.899D+00
 Gap=     0.162 Goal=   None    Shift=    0.000
 RMSDP=2.20D-05 MaxDP=4.65D-04 DE=-3.67D-05 OVMax= 5.97D-03

 Cycle  10  Pass 0  IDiag  1:
 RMSU=  8.06D-06    CP:  9.57D-01  1.30D+00  1.03D+00  1.02D+00  1.43D+00
                    CP:  1.35D+00  1.64D+00  1.84D+00  1.72D+00
 E= -686.464768749704     Delta-E=       -0.000024494152 Rises=F Damp=F
 DIIS: error= 1.32D-04 at cycle  10 NSaved=  10.
 NSaved=10 IEnMin=10 EnMin= -686.464768749704     IErMin=10 ErrMin= 1.32D-04
 ErrMax= 1.32D-04  0.00D+00 EMaxC= 1.00D-01 BMatC= 1.19D-06 BMatP= 2.10D-06
 IDIUse=3 WtCom= 9.99D-01 WtEn= 1.32D-03
 Coeff-Com: -0.627D-03-0.334D-03-0.352D-03 0.108D-01 0.237D-01-0.142D-01
 Coeff-Com: -0.187D+00-0.405D+00 0.339D+00 0.123D+01
 Coeff-En:   0.000D+00 0.000D+00 0.000D+00 0.000D+00 0.000D+00 0.000D+00
 Coeff-En:   0.000D+00 0.000D+00 0.000D+00 0.100D+01
 Coeff:     -0.626D-03-0.334D-03-0.352D-03 0.108D-01 0.237D-01-0.141D-01
 Coeff:     -0.187D+00-0.405D+00 0.338D+00 0.123D+01
 Gap=     0.162 Goal=   None    Shift=    0.000
 RMSDP=3.18D-05 MaxDP=6.33D-04 DE=-2.45D-05 OVMax= 8.96D-03

 Cycle  11  Pass 0  IDiag  1:
 RMSU=  5.69D-06    CP:  9.57D-01  1.29D+00  1.03D+00  1.03D+00  1.45D+00
                    CP:  1.42D+00  1.90D+00  2.48D+00  3.00D+00  2.04D+00
 E= -686.464795123993     Delta-E=       -0.000026374289 Rises=F Damp=F
 DIIS: error= 8.98D-05 at cycle  11 NSaved=  11.
 NSaved=11 IEnMin=11 EnMin= -686.464795123993     IErMin=11 ErrMin= 8.98D-05
 ErrMax= 8.98D-05  0.00D+00 EMaxC= 1.00D-01 BMatC= 4.28D-07 BMatP= 1.19D-06
 IDIUse=1 WtCom= 1.00D+00 WtEn= 0.00D+00
 Coeff-Com:  0.379D-03-0.130D-02-0.255D-02-0.315D-02 0.145D-01 0.316D-01
 Coeff-Com:  0.549D-02-0.141D+00-0.415D+00 0.275D-01 0.148D+01
 Coeff:      0.379D-03-0.130D-02-0.255D-02-0.315D-02 0.145D-01 0.316D-01
 Coeff:      0.549D-02-0.141D+00-0.415D+00 0.275D-01 0.148D+01
 Gap=     0.162 Goal=   None    Shift=    0.000
 RMSDP=3.15D-05 MaxDP=6.17D-04 DE=-2.64D-05 OVMax= 9.20D-03

 Cycle  12  Pass 0  IDiag  1:
 RMSU=  1.80D-05    CP:  9.57D-01  1.29D+00  1.03D+00  1.04D+00  1.47D+00
                    CP:  1.49D+00  2.12D+00  3.00D+00  3.00D+00  3.00D+00
                    CP:  2.31D+00
 E= -686.464810890212     Delta-E=       -0.000015766219 Rises=F Damp=F
 DIIS: error= 4.05D-05 at cycle  12 NSaved=  12.
 NSaved=12 IEnMin=12 EnMin= -686.464810890212     IErMin=12 ErrMin= 4.05D-05
 ErrMax= 4.05D-05  0.00D+00 EMaxC= 1.00D-01 BMatC= 2.03D-07 BMatP= 4.28D-07
 IDIUse=1 WtCom= 1.00D+00 WtEn= 0.00D+00
 Coeff-Com:  0.628D-03-0.533D-03-0.582D-03-0.556D-02-0.395D-02 0.184D-01
 Coeff-Com:  0.829D-01 0.117D+00-0.354D+00-0.576D+00 0.755D+00 0.966D+00
 Coeff:      0.628D-03-0.533D-03-0.582D-03-0.556D-02-0.395D-02 0.184D-01
 Coeff:      0.829D-01 0.117D+00-0.354D+00-0.576D+00 0.755D+00 0.966D+00
 Gap=     0.162 Goal=   None    Shift=    0.000
 RMSDP=2.01D-05 MaxDP=4.16D-04 DE=-1.58D-05 OVMax= 5.88D-03

 Cycle  13  Pass 0  IDiag  1:
 RMSU=  9.90D-06    CP:  9.57D-01  1.29D+00  1.03D+00  1.04D+00  1.49D+00
                    CP:  1.53D+00  2.26D+00  3.00D+00  3.00D+00  3.00D+00
                    CP:  3.00D+00  1.74D+00
 E= -686.464815245224     Delta-E=       -0.000004355012 Rises=F Damp=F
 DIIS: error= 1.39D-05 at cycle  13 NSaved=  13.
 NSaved=13 IEnMin=13 EnMin= -686.464815245224     IErMin=13 ErrMin= 1.39D-05
 ErrMax= 1.39D-05  0.00D+00 EMaxC= 1.00D-01 BMatC= 4.28D-08 BMatP= 2.03D-07
 IDIUse=1 WtCom= 1.00D+00 WtEn= 0.00D+00
 Coeff-Com:  0.256D-03-0.260D-04 0.448D-03-0.663D-03-0.499D-02-0.303D-02
 Coeff-Com:  0.281D-01 0.778D-01-0.696D-02-0.186D+00-0.149D+00 0.273D+00
 Coeff-Com:  0.971D+00
 Coeff:      0.256D-03-0.260D-04 0.448D-03-0.663D-03-0.499D-02-0.303D-02
 Coeff:      0.281D-01 0.778D-01-0.696D-02-0.186D+00-0.149D+00 0.273D+00
 Coeff:      0.971D+00
 Gap=     0.162 Goal=   None    Shift=    0.000
 RMSDP=7.10D-06 MaxDP=1.49D-04 DE=-4.36D-06 OVMax= 2.03D-03

 Initial convergence to 1.0D-05 achieved.  Increase integral accuracy.
 Cycle  14  Pass 1  IDiag  1:
 E= -686.464836235820     Delta-E=       -0.000020990595 Rises=F Damp=F
 DIIS: error= 1.28D-04 at cycle   1 NSaved=   1.
 NSaved= 1 IEnMin= 1 EnMin= -686.464836235820     IErMin= 1 ErrMin= 1.28D-04
 ErrMax= 1.28D-04  0.00D+00 EMaxC= 1.00D-01 BMatC= 1.47D-06 BMatP= 1.47D-06
 IDIUse=3 WtCom= 9.99D-01 WtEn= 1.28D-03
 Coeff-Com:  0.100D+01
 Coeff-En:   0.100D+01
 Coeff:      0.100D+01
 Gap=     0.162 Goal=   None    Shift=    0.000
 RMSDP=7.10D-06 MaxDP=1.49D-04 DE=-2.10D-05 OVMax= 2.27D-04

 Cycle  15  Pass 1  IDiag  1:
 RMSU=  7.89D-05    CP:  1.00D+00
 E= -686.464837454743     Delta-E=       -0.000001218923 Rises=F Damp=F
 DIIS: error= 7.87D-06 at cycle   2 NSaved=   2.
 NSaved= 2 IEnMin= 2 EnMin= -686.464837454743     IErMin= 2 ErrMin= 7.87D-06
 ErrMax= 7.87D-06  0.00D+00 EMaxC= 1.00D-01 BMatC= 1.69D-08 BMatP= 1.47D-06
 IDIUse=1 WtCom= 1.00D+00 WtEn= 0.00D+00
 Coeff-Com: -0.248D-01 0.102D+01
 Coeff:     -0.248D-01 0.102D+01
 Gap=     0.162 Goal=   None    Shift=    0.000
 RMSDP=5.38D-06 MaxDP=1.64D-04 DE=-1.22D-06 OVMax= 1.87D-04

 Cycle  16  Pass 1  IDiag  1:
 RMSU=  1.80D-06    CP:  1.00D+00  1.06D+00
 E= -686.464837491011     Delta-E=       -0.000000036268 Rises=F Damp=F
 DIIS: error= 5.44D-06 at cycle   3 NSaved=   3.
 NSaved= 3 IEnMin= 3 EnMin= -686.464837491011     IErMin= 3 ErrMin= 5.44D-06
 ErrMax= 5.44D-06  0.00D+00 EMaxC= 1.00D-01 BMatC= 2.14D-08 BMatP= 1.69D-08
 IDIUse=1 WtCom= 1.00D+00 WtEn= 0.00D+00
 Coeff-Com: -0.226D-01 0.561D+00 0.462D+00
 Coeff:     -0.226D-01 0.561D+00 0.462D+00
 Gap=     0.162 Goal=   None    Shift=    0.000
 RMSDP=5.64D-07 MaxDP=1.52D-05 DE=-3.63D-08 OVMax= 7.61D-05

 Cycle  17  Pass 1  IDiag  1:
 RMSU=  5.39D-07    CP:  1.00D+00  1.07D+00  9.91D-01
 E= -686.464837521528     Delta-E=       -0.000000030517 Rises=F Damp=F
 DIIS: error= 3.53D-06 at cycle   4 NSaved=   4.
 NSaved= 4 IEnMin= 4 EnMin= -686.464837521528     IErMin= 4 ErrMin= 3.53D-06
 ErrMax= 3.53D-06  0.00D+00 EMaxC= 1.00D-01 BMatC= 1.31D-09 BMatP= 1.69D-08
 IDIUse=1 WtCom= 1.00D+00 WtEn= 0.00D+00
 Coeff-Com:  0.486D-02-0.168D+00-0.168D-01 0.118D+01
 Coeff:      0.486D-02-0.168D+00-0.168D-01 0.118D+01
 Gap=     0.162 Goal=   None    Shift=    0.000
 RMSDP=7.11D-07 MaxDP=1.37D-05 DE=-3.05D-08 OVMax= 1.67D-04

 Cycle  18  Pass 1  IDiag  1:
 RMSU=  4.47D-07    CP:  1.00D+00  1.07D+00  1.22D+00  1.62D+00
 E= -686.464837541563     Delta-E=       -0.000000020035 Rises=F Damp=F
 DIIS: error= 2.95D-06 at cycle   5 NSaved=   5.
 NSaved= 5 IEnMin= 5 EnMin= -686.464837541563     IErMin= 5 ErrMin= 2.95D-06
 ErrMax= 2.95D-06  0.00D+00 EMaxC= 1.00D-01 BMatC= 7.04D-10 BMatP= 1.31D-09
 IDIUse=1 WtCom= 1.00D+00 WtEn= 0.00D+00
 Coeff-Com:  0.101D-01-0.268D+00-0.168D+00 0.403D+00 0.102D+01
 Coeff:      0.101D-01-0.268D+00-0.168D+00 0.403D+00 0.102D+01
 Gap=     0.162 Goal=   None    Shift=    0.000
 RMSDP=6.44D-07 MaxDP=1.44D-05 DE=-2.00D-08 OVMax= 1.70D-04

 Cycle  19  Pass 1  IDiag  1:
 RMSU=  1.50D-07    CP:  1.00D+00  1.07D+00  1.39D+00  2.25D+00  1.95D+00
 E= -686.464837554534     Delta-E=       -0.000000012971 Rises=F Damp=F
 DIIS: error= 2.15D-06 at cycle   6 NSaved=   6.
 NSaved= 6 IEnMin= 6 EnMin= -686.464837554534     IErMin= 6 ErrMin= 2.15D-06
 ErrMax= 2.15D-06  0.00D+00 EMaxC= 1.00D-01 BMatC= 3.51D-10 BMatP= 7.04D-10
 IDIUse=1 WtCom= 1.00D+00 WtEn= 0.00D+00
 Coeff-Com:  0.129D-02-0.125D-01-0.496D-01-0.498D+00 0.456D+00 0.110D+01
 Coeff:      0.129D-02-0.125D-01-0.496D-01-0.498D+00 0.456D+00 0.110D+01
 Gap=     0.162 Goal=   None    Shift=    0.000
 RMSDP=6.11D-07 MaxDP=1.34D-05 DE=-1.30D-08 OVMax= 1.70D-04

 Cycle  20  Pass 1  IDiag  1:
 RMSU=  1.33D-07    CP:  1.00D+00  1.07D+00  1.51D+00  2.80D+00  2.95D+00
                    CP:  1.86D+00
 E= -686.464837562291     Delta-E=       -0.000000007757 Rises=F Damp=F
 DIIS: error= 1.60D-06 at cycle   7 NSaved=   7.
 NSaved= 7 IEnMin= 7 EnMin= -686.464837562291     IErMin= 7 ErrMin= 1.60D-06
 ErrMax= 1.60D-06  0.00D+00 EMaxC= 1.00D-01 BMatC= 1.39D-10 BMatP= 3.51D-10
 IDIUse=1 WtCom= 1.00D+00 WtEn= 0.00D+00
 Coeff-Com: -0.229D-02 0.712D-01 0.263D-01-0.376D+00-0.724D-01 0.496D+00
 Coeff-Com:  0.857D+00
 Coeff:     -0.229D-02 0.712D-01 0.263D-01-0.376D+00-0.724D-01 0.496D+00
 Coeff:      0.857D+00
 Gap=     0.162 Goal=   None    Shift=    0.000
 RMSDP=3.38D-07 MaxDP=7.93D-06 DE=-7.76D-09 OVMax= 1.00D-04

 Cycle  21  Pass 1  IDiag  1:
 RMSU=  2.31D-07    CP:  1.00D+00  1.07D+00  1.57D+00  3.00D+00  3.00D+00
                    CP:  2.61D+00  1.63D+00
 E= -686.464837565132     Delta-E=       -0.000000002841 Rises=F Damp=F
 DIIS: error= 9.18D-07 at cycle   8 NSaved=   8.
 NSaved= 8 IEnMin= 8 EnMin= -686.464837565132     IErMin= 8 ErrMin= 9.18D-07
 ErrMax= 9.18D-07  0.00D+00 EMaxC= 1.00D-01 BMatC= 9.64D-11 BMatP= 1.39D-10
 IDIUse=1 WtCom= 1.00D+00 WtEn= 0.00D+00
 Coeff-Com: -0.161D-02 0.372D-01 0.356D-01 0.656D-01-0.190D+00-0.373D+00
 Coeff-Com:  0.496D+00 0.931D+00
 Coeff:     -0.161D-02 0.372D-01 0.356D-01 0.656D-01-0.190D+00-0.373D+00
 Coeff:      0.496D+00 0.931D+00
 Gap=     0.162 Goal=   None    Shift=    0.000
 RMSDP=2.28D-07 MaxDP=4.83D-06 DE=-2.84D-09 OVMax= 6.40D-05

 Cycle  22  Pass 1  IDiag  1:
 RMSU=  7.59D-08    CP:  1.00D+00  1.07D+00  1.59D+00  3.00D+00  3.00D+00
                    CP:  3.00D+00  2.54D+00  1.63D+00
 E= -686.464837566584     Delta-E=       -0.000000001452 Rises=F Damp=F
 DIIS: error= 6.94D-07 at cycle   9 NSaved=   9.
 NSaved= 9 IEnMin= 9 EnMin= -686.464837566584     IErMin= 9 ErrMin= 6.94D-07
 ErrMax= 6.94D-07  0.00D+00 EMaxC= 1.00D-01 BMatC= 3.96D-11 BMatP= 9.64D-11
 IDIUse=1 WtCom= 1.00D+00 WtEn= 0.00D+00
 Coeff-Com:  0.111D-02-0.469D-01 0.276D-02 0.481D+00-0.934D-01-0.995D+00
 Coeff-Com: -0.344D+00 0.754D+00 0.124D+01
 Coeff:      0.111D-02-0.469D-01 0.276D-02 0.481D+00-0.934D-01-0.995D+00
 Coeff:     -0.344D+00 0.754D+00 0.124D+01
 Gap=     0.162 Goal=   None    Shift=    0.000
 RMSDP=3.81D-07 MaxDP=7.98D-06 DE=-1.45D-09 OVMax= 1.08D-04

 Cycle  23  Pass 1  IDiag  1:
 RMSU=  1.78D-07    CP:  1.00D+00  1.07D+00  1.64D+00  3.00D+00  3.00D+00
                    CP:  3.00D+00  3.00D+00  2.71D+00  3.00D+00
 E= -686.464837567701     Delta-E=       -0.000000001117 Rises=F Damp=F
 DIIS: error= 1.36D-07 at cycle  10 NSaved=  10.
 NSaved=10 IEnMin=10 EnMin= -686.464837567701     IErMin=10 ErrMin= 1.36D-07
 ErrMax= 1.36D-07  0.00D+00 EMaxC= 1.00D-01 BMatC= 6.24D-12 BMatP= 3.96D-11
 IDIUse=1 WtCom= 1.00D+00 WtEn= 0.00D+00
 Coeff-Com:  0.734D-03-0.276D-01-0.273D-02 0.232D+00-0.214D-01-0.451D+00
 Coeff-Com: -0.227D+00 0.240D+00 0.632D+00 0.624D+00
 Coeff:      0.734D-03-0.276D-01-0.273D-02 0.232D+00-0.214D-01-0.451D+00
 Coeff:     -0.227D+00 0.240D+00 0.632D+00 0.624D+00
 Gap=     0.162 Goal=   None    Shift=    0.000
 RMSDP=5.32D-08 MaxDP=1.08D-06 DE=-1.12D-09 OVMax= 1.42D-05

 Cycle  24  Pass 1  IDiag  1:
 RMSU=  2.81D-08    CP:  1.00D+00  1.07D+00  1.64D+00  3.00D+00  3.00D+00
                    CP:  3.00D+00  3.00D+00  2.85D+00  3.00D+00  1.18D+00
 E= -686.464837567767     Delta-E=       -0.000000000066 Rises=F Damp=F
 DIIS: error= 5.19D-08 at cycle  11 NSaved=  11.
 NSaved=11 IEnMin=11 EnMin= -686.464837567767     IErMin=11 ErrMin= 5.19D-08
 ErrMax= 5.19D-08  0.00D+00 EMaxC= 1.00D-01 BMatC= 9.08D-13 BMatP= 6.24D-12
 IDIUse=1 WtCom= 1.00D+00 WtEn= 0.00D+00
 Coeff-Com:  0.775D-04-0.157D-02-0.209D-02-0.931D-02 0.129D-01 0.327D-01
 Coeff-Com: -0.251D-01-0.752D-01 0.134D-01 0.274D+00 0.780D+00
 Coeff:      0.775D-04-0.157D-02-0.209D-02-0.931D-02 0.129D-01 0.327D-01
 Coeff:     -0.251D-01-0.752D-01 0.134D-01 0.274D+00 0.780D+00
 Gap=     0.162 Goal=   None    Shift=    0.000
 RMSDP=1.59D-08 MaxDP=3.23D-07 DE=-6.59D-11 OVMax= 3.38D-06

 Cycle  25  Pass 1  IDiag  1:
 RMSU=  8.48D-09    CP:  1.00D+00  1.07D+00  1.65D+00  3.00D+00  3.00D+00
                    CP:  3.00D+00  3.00D+00  2.88D+00  3.00D+00  1.23D+00
                    CP:  1.24D+00
 E= -686.464837567791     Delta-E=       -0.000000000024 Rises=F Damp=F
 DIIS: error= 3.39D-08 at cycle  12 NSaved=  12.
 NSaved=12 IEnMin=12 EnMin= -686.464837567791     IErMin=12 ErrMin= 3.39D-08
 ErrMax= 3.39D-08  0.00D+00 EMaxC= 1.00D-01 BMatC= 3.02D-13 BMatP= 9.08D-13
 IDIUse=1 WtCom= 1.00D+00 WtEn= 0.00D+00
 Coeff-Com: -0.105D-03 0.457D-02-0.531D-03-0.487D-01 0.100D-01 0.103D+00
 Coeff-Com:  0.268D-01-0.804D-01-0.108D+00-0.153D-01 0.396D+00 0.713D+00
 Coeff:     -0.105D-03 0.457D-02-0.531D-03-0.487D-01 0.100D-01 0.103D+00
 Coeff:      0.268D-01-0.804D-01-0.108D+00-0.153D-01 0.396D+00 0.713D+00
 Gap=     0.162 Goal=   None    Shift=    0.000
 RMSDP=6.00D-09 MaxDP=1.19D-07 DE=-2.41D-11 OVMax= 1.15D-06

 SCF Done:  E(RLC-wHPBE) =  -686.464837568     A.U. after   25 cycles
            NFock= 25  Conv=0.60D-08     -V/T= 2.0100
 KE= 6.796436477115D+02 PE=-3.692918164732D+03 EE= 1.250131094042D+03
 Leave Link  502 at Wed May 11 06:07:08 2022, MaxMem=  6442450944 cpu:            1765.2 elap:             112.7
 (Enter /mnt/gpfs3_amd/share/apps/amd/gaussian/g16-A.03/g16/l601.exe)
 Copying SCF densities to generalized density rwf, IOpCl= 0 IROHF=0.

 **********************************************************************

            Population analysis using the SCF density.

 **********************************************************************

 Orbital symmetries:
       Occupied  (A) (A) (A) (A) (A) (A) (A) (A) (A) (A) (A) (A)
                 (A) (A) (A) (A) (A) (A) (A) (A) (A) (A) (A) (A)
                 (A) (A) (A) (A) (A) (A) (A) (A) (A) (A) (A) (A)
                 (A) (A) (A) (A) (A) (A) (A) (A) (A) (A) (A) (A)
                 (A) (A) (A) (A) (A) (A) (A) (A) (A)
       Virtual   (A) (A) (A) (A) (A) (A) (A) (A) (A) (A) (A) (A)
                 (A) (A) (A) (A) (A) (A) (A) (A) (A) (A) (A) (A)
                 (A) (A) (A) (A) (A) (A) (A) (A) (A) (A) (A) (A)
                 (A) (A) (A) (A) (A) (A) (A) (A) (A) (A) (A) (A)
                 (A) (A) (A) (A) (A) (A) (A) (A) (A) (A) (A) (A)
                 (A) (A) (A) (A) (A) (A) (A) (A) (A) (A) (A) (A)
                 (A) (A) (A) (A) (A) (A) (A) (A) (A) (A) (A) (A)
                 (A) (A) (A) (A) (A) (A) (A) (A) (A) (A) (A) (A)
                 (A) (A) (A) (A) (A) (A) (A) (A) (A) (A) (A) (A)
                 (A) (A) (A) (A) (A) (A) (A) (A) (A) (A) (A) (A)
                 (A) (A) (A) (A) (A) (A) (A) (A) (A) (A) (A) (A)
                 (A) (A) (A) (A) (A) (A) (A) (A) (A) (A) (A) (A)
                 (A) (A) (A) (A) (A) (A) (A) (A) (A) (A) (A) (A)
                 (A) (A) (A) (A) (A) (A) (A) (A) (A) (A) (A) (A)
                 (A) (A) (A) (A) (A) (A) (A) (A) (A) (A) (A) (A)
                 (A) (A) (A) (A) (A) (A) (A) (A) (A) (A) (A) (A)
                 (A) (A) (A) (A) (A) (A) (A) (A) (A) (A) (A) (A)
                 (A) (A) (A) (A) (A) (A) (A) (A) (A) (A) (A) (A)
                 (A) (A) (A) (A) (A) (A) (A) (A) (A) (A) (A) (A)
                 (A) (A) (A) (A) (A) (A) (A) (A) (A) (A) (A) (A)
                 (A) (A) (A) (A) (A) (A)
 The electronic state is 1-A.
 Alpha  occ. eigenvalues --  -14.71872 -14.58405 -10.60805 -10.59889 -10.57298
 Alpha  occ. eigenvalues --  -10.54526 -10.54489 -10.47916 -10.47777 -10.46612
 Alpha  occ. eigenvalues --  -10.46580 -10.46499 -10.46243 -10.45213 -10.45143
 Alpha  occ. eigenvalues --  -10.44343 -10.44176  -1.52569  -1.47088  -1.36552
 Alpha  occ. eigenvalues --   -1.36155  -1.34473  -1.26806  -1.25376  -1.23174
 Alpha  occ. eigenvalues --   -1.22677  -1.16947  -1.14095  -1.11900  -1.10550
 Alpha  occ. eigenvalues --   -1.09768  -1.06645  -1.05487  -1.04857  -1.01876
 Alpha  occ. eigenvalues --   -0.99457  -0.99316  -0.98064  -0.96573  -0.95589
 Alpha  occ. eigenvalues --   -0.94569  -0.92779  -0.92145  -0.91845  -0.90842
 Alpha  occ. eigenvalues --   -0.90521  -0.89942  -0.89478  -0.85021  -0.84330
 Alpha  occ. eigenvalues --   -0.84133  -0.82755  -0.81824  -0.76976  -0.75876
 Alpha  occ. eigenvalues --   -0.75767  -0.75261
 Alpha virt. eigenvalues --   -0.59056  -0.45440  -0.41466  -0.39126  -0.37314
 Alpha virt. eigenvalues --   -0.35900  -0.35132  -0.30253  -0.26545  -0.24134
 Alpha virt. eigenvalues --   -0.23785  -0.22999  -0.21760  -0.21270  -0.20800
 Alpha virt. eigenvalues --   -0.19829  -0.19745  -0.17928  -0.17184  -0.17125
 Alpha virt. eigenvalues --   -0.15532  -0.14931  -0.13943  -0.13176  -0.11981
 Alpha virt. eigenvalues --   -0.11171  -0.10841  -0.09595  -0.07228  -0.06793
 Alpha virt. eigenvalues --   -0.04838  -0.04336  -0.04127  -0.03978  -0.02181
 Alpha virt. eigenvalues --   -0.01493   0.01209   0.01535   0.02267   0.02979
 Alpha virt. eigenvalues --    0.04340   0.05249   0.06719   0.07006   0.08268
 Alpha virt. eigenvalues --    0.08978   0.09377   0.09579   0.11968   0.12080
 Alpha virt. eigenvalues --    0.14000   0.14495   0.15323   0.15564   0.16848
 Alpha virt. eigenvalues --    0.17011   0.17276   0.17458   0.18824   0.19594
 Alpha virt. eigenvalues --    0.20282   0.21692   0.22020   0.22170   0.22877
 Alpha virt. eigenvalues --    0.23801   0.25314   0.25879   0.28133   0.28501
 Alpha virt. eigenvalues --    0.29855   0.30122   0.31228   0.31875   0.32120
 Alpha virt. eigenvalues --    0.32881   0.33568   0.34296   0.35159   0.35285
 Alpha virt. eigenvalues --    0.35947   0.36445   0.37319   0.37998   0.38963
 Alpha virt. eigenvalues --    0.40323   0.40715   0.41000   0.41266   0.41944
 Alpha virt. eigenvalues --    0.43092   0.44286   0.44657   0.45142   0.46933
 Alpha virt. eigenvalues --    0.47812   0.48763   0.49232   0.49865   0.51626
 Alpha virt. eigenvalues --    0.53527   0.55931   0.57360   0.59034   0.60089
 Alpha virt. eigenvalues --    0.62535   0.63220   0.66888   0.68565   0.71621
 Alpha virt. eigenvalues --    0.72445   0.74857   0.75266   0.76567   0.79602
 Alpha virt. eigenvalues --    0.83756   0.84771   0.86289   0.87739   0.88052
 Alpha virt. eigenvalues --    0.88531   0.89094   0.91577   0.91781   0.92226
 Alpha virt. eigenvalues --    0.92791   0.93811   0.94166   0.94809   0.98304
 Alpha virt. eigenvalues --    0.98677   1.00259   1.06670   1.08223   1.12267
 Alpha virt. eigenvalues --    1.17042   1.18999   1.20728   1.21864   1.23947
 Alpha virt. eigenvalues --    1.28731   1.29955   1.30459   1.31009   1.31612
 Alpha virt. eigenvalues --    1.33306   1.34876   1.35244   1.38094   1.38230
 Alpha virt. eigenvalues --    1.38480   1.39072   1.39453   1.39702   1.40387
 Alpha virt. eigenvalues --    1.40939   1.41844   1.42801   1.42978   1.44559
 Alpha virt. eigenvalues --    1.46125   1.47041   1.47380   1.49811   1.50218
 Alpha virt. eigenvalues --    1.51085   1.51731   1.57619   1.58453   1.59337
 Alpha virt. eigenvalues --    1.60118   1.61258   1.62140   1.62600   1.63372
 Alpha virt. eigenvalues --    1.63959   1.64636   1.65804   1.66395   1.68034
 Alpha virt. eigenvalues --    1.69070   1.73087   1.73518   1.75193   1.76770
 Alpha virt. eigenvalues --    1.76928   1.78780   1.79084   1.79453   1.80589
 Alpha virt. eigenvalues --    1.80742   1.81749   1.83241   1.88321   1.89424
 Alpha virt. eigenvalues --    1.90455   1.91070   1.91413   1.92227   1.93684
 Alpha virt. eigenvalues --    1.95166   1.96573   1.96858   1.97068   1.97506
 Alpha virt. eigenvalues --    2.02895   2.04469   2.07020   2.08985   2.12579
 Alpha virt. eigenvalues --    2.17733   2.19802   2.21728   2.22111   2.23586
 Alpha virt. eigenvalues --    2.25189   2.25688   2.26791   2.27007   2.28236
 Alpha virt. eigenvalues --    2.36775   2.37134   2.38171   2.38703   2.39435
 Alpha virt. eigenvalues --    2.41203   2.43687   2.47394   2.51098   2.52448
 Alpha virt. eigenvalues --    2.53352   2.54361   2.59616   2.67029   2.73060
 Alpha virt. eigenvalues --    2.74343   2.75666   2.77012   2.80820   2.85210
 Alpha virt. eigenvalues --    2.89139   2.94369   2.96455   3.04077   3.28411
 Alpha virt. eigenvalues --    3.30025
          Condensed to atoms (all electrons):
               1          2          3          4          5          6
     1  N    5.901905   0.538790  -0.034929  -0.055195  -0.000451   0.000294
     2  C    0.538790   4.888295   0.257257   0.151195  -0.018242  -0.006844
     3  C   -0.034929   0.257257   5.128929   0.109263  -0.022558   0.001381
     4  C   -0.055195   0.151195   0.109263   5.448415   0.292819  -0.062005
     5  N   -0.000451  -0.018242  -0.022558   0.292819   6.630253   0.297999
     6  C    0.000294  -0.006844   0.001381  -0.062005   0.297999   5.581035
     7  C    0.000126  -0.001061  -0.002397  -0.001969  -0.079903   0.045799
     8  C   -0.000002   0.000188  -0.000051  -0.000223   0.007463   0.174516
     9  C    0.000001   0.000006  -0.000008   0.000074  -0.001021  -0.196845
    10  C   -0.000000   0.000003   0.000014   0.000027   0.008218   0.179483
    11  C   -0.000017   0.000198  -0.000416   0.002672  -0.075081   0.023121
    12  C   -0.000077  -0.005033  -0.004924  -0.049896   0.292782  -0.043543
    13  C    0.000000  -0.000536   0.000339   0.001276  -0.072041   0.014911
    14  C   -0.000000   0.000018   0.000003   0.000016   0.009094  -0.001571
    15  C    0.000000  -0.000003  -0.000006   0.000078  -0.001124   0.000210
    16  C    0.000000   0.000032   0.000023  -0.000177   0.006981  -0.000468
    17  C   -0.000001  -0.000893  -0.001196  -0.000148  -0.077037   0.004578
    18  H    0.373255  -0.012637   0.005404  -0.010045   0.000137   0.000012
    19  H    0.357826  -0.003317  -0.006958   0.009375  -0.000012  -0.000021
    20  H   -0.000369  -0.035391   0.440950  -0.032649  -0.000417  -0.000081
    21  H    0.000025   0.000118  -0.004055   0.006802  -0.013381  -0.086257
    22  H   -0.000000   0.000003   0.000003  -0.000034  -0.000064   0.013622
    23  H    0.000000  -0.000000   0.000000   0.000000   0.000012  -0.001854
    24  H    0.000000   0.000000  -0.000000   0.000002  -0.000028   0.014099
    25  H    0.000001  -0.000001  -0.000000  -0.000560  -0.015062  -0.077262
    26  H   -0.000000  -0.000037   0.000027  -0.000724  -0.015943   0.010835
    27  H   -0.000000  -0.000000  -0.000000   0.000001  -0.000058  -0.000061
    28  H    0.000000   0.000000  -0.000000   0.000000   0.000011   0.000000
    29  H   -0.000000  -0.000000   0.000003  -0.000021  -0.000045   0.000006
    30  H    0.000032  -0.002298  -0.000537   0.004809  -0.013415  -0.000571
               7          8          9         10         11         12
     1  N    0.000126  -0.000002   0.000001  -0.000000  -0.000017  -0.000077
     2  C   -0.001061   0.000188   0.000006   0.000003   0.000198  -0.005033
     3  C   -0.002397  -0.000051  -0.000008   0.000014  -0.000416  -0.004924
     4  C   -0.001969  -0.000223   0.000074   0.000027   0.002672  -0.049896
     5  N   -0.079903   0.007463  -0.001021   0.008218  -0.075081   0.292782
     6  C    0.045799   0.174516  -0.196845   0.179483   0.023121  -0.043543
     7  C    5.278581   0.249757   0.128158  -0.173314   0.108270   0.003506
     8  C    0.249757   5.019545   0.170459   0.141235  -0.177039  -0.000458
     9  C    0.128158   0.170459   5.070404   0.171140   0.144179   0.000184
    10  C   -0.173314   0.141235   0.171140   5.072787   0.199529  -0.001200
    11  C    0.108270  -0.177039   0.144179   0.199529   5.268344   0.013871
    12  C    0.003506  -0.000458   0.000184  -0.001200   0.013871   5.563472
    13  C   -0.000769   0.000064  -0.000113  -0.000549  -0.005724   0.026461
    14  C    0.000013   0.000003  -0.000000   0.000015  -0.000573   0.181585
    15  C   -0.000006   0.000000  -0.000000  -0.000000  -0.000109  -0.199025
    16  C    0.000010  -0.000000   0.000000   0.000002   0.000068   0.173060
    17  C   -0.000897   0.000009  -0.000005  -0.000004  -0.000543   0.057696
    18  H   -0.000005  -0.000001  -0.000000  -0.000000   0.000002  -0.000009
    19  H    0.000011   0.000002   0.000000  -0.000000   0.000000   0.000002
    20  H    0.000005   0.000000   0.000000   0.000000   0.000002   0.000237
    21  H    0.459705  -0.039472   0.012758  -0.002562   0.014774  -0.000499
    22  H   -0.054272   0.448214  -0.054553   0.012404  -0.001785   0.000007
    23  H    0.012259  -0.056626   0.455079  -0.059011   0.011830  -0.000000
    24  H   -0.001983   0.012437  -0.057642   0.456277  -0.057488  -0.000054
    25  H    0.014870  -0.002493   0.012774  -0.049574   0.463396   0.009200
    26  H   -0.001948   0.000032   0.000020  -0.000519  -0.001162  -0.074525
    27  H    0.000002  -0.000000   0.000000  -0.000000   0.000013   0.014495
    28  H    0.000000   0.000000  -0.000000   0.000000   0.000000  -0.001878
    29  H   -0.000000  -0.000000   0.000000  -0.000000  -0.000000   0.014454
    30  H    0.000018   0.000001  -0.000000   0.000001   0.000035  -0.085351
              13         14         15         16         17         18
     1  N    0.000000  -0.000000   0.000000   0.000000  -0.000001   0.373255
     2  C   -0.000536   0.000018  -0.000003   0.000032  -0.000893  -0.012637
     3  C    0.000339   0.000003  -0.000006   0.000023  -0.001196   0.005404
     4  C    0.001276   0.000016   0.000078  -0.000177  -0.000148  -0.010045
     5  N   -0.072041   0.009094  -0.001124   0.006981  -0.077037   0.000137
     6  C    0.014911  -0.001571   0.000210  -0.000468   0.004578   0.000012
     7  C   -0.000769   0.000013  -0.000006   0.000010  -0.000897  -0.000005
     8  C    0.000064   0.000003   0.000000  -0.000000   0.000009  -0.000001
     9  C   -0.000113  -0.000000  -0.000000   0.000000  -0.000005  -0.000000
    10  C   -0.000549   0.000015  -0.000000   0.000002  -0.000004  -0.000000
    11  C   -0.005724  -0.000573  -0.000109   0.000068  -0.000543   0.000002
    12  C    0.026461   0.181585  -0.199025   0.173060   0.057696  -0.000009
    13  C    5.250040   0.207292   0.146851  -0.175305   0.103392   0.000000
    14  C    0.207292   5.088937   0.152488   0.153589  -0.185636  -0.000000
    15  C    0.146851   0.152488   5.083925   0.138767   0.135578   0.000000
    16  C   -0.175305   0.153589   0.138767   5.042867   0.256273   0.000001
    17  C    0.103392  -0.185636   0.135578   0.256273   5.261309   0.000015
    18  H    0.000000  -0.000000   0.000000   0.000001   0.000015   0.418704
    19  H   -0.000000   0.000000  -0.000000  -0.000000  -0.000001  -0.014614
    20  H   -0.000008   0.000001  -0.000001   0.000000  -0.000006  -0.000015
    21  H    0.000054   0.000000   0.000000   0.000001   0.000014  -0.000000
    22  H   -0.000001  -0.000000   0.000000  -0.000000  -0.000000   0.000000
    23  H    0.000000   0.000000  -0.000000   0.000000   0.000000  -0.000000
    24  H    0.000011  -0.000000   0.000000  -0.000000   0.000001   0.000000
    25  H   -0.000988  -0.000514   0.000021  -0.000005  -0.001291   0.000000
    26  H    0.460266  -0.049681   0.012185  -0.002612   0.015375  -0.000000
    27  H   -0.054460   0.454514  -0.058739   0.012340  -0.001799   0.000000
    28  H    0.011522  -0.059865   0.461254  -0.060148   0.012376  -0.000000
    29  H   -0.001880   0.011635  -0.057581   0.446647  -0.050990  -0.000000
    30  H    0.016166  -0.002688   0.013114  -0.040939   0.456527   0.000048
              19         20         21         22         23         24
     1  N    0.357826  -0.000369   0.000025  -0.000000   0.000000   0.000000
     2  C   -0.003317  -0.035391   0.000118   0.000003  -0.000000   0.000000
     3  C   -0.006958   0.440950  -0.004055   0.000003   0.000000  -0.000000
     4  C    0.009375  -0.032649   0.006802  -0.000034   0.000000   0.000002
     5  N   -0.000012  -0.000417  -0.013381  -0.000064   0.000012  -0.000028
     6  C   -0.000021  -0.000081  -0.086257   0.013622  -0.001854   0.014099
     7  C    0.000011   0.000005   0.459705  -0.054272   0.012259  -0.001983
     8  C    0.000002   0.000000  -0.039472   0.448214  -0.056626   0.012437
     9  C    0.000000   0.000000   0.012758  -0.054553   0.455079  -0.057642
    10  C   -0.000000   0.000000  -0.002562   0.012404  -0.059011   0.456277
    11  C    0.000000   0.000002   0.014774  -0.001785   0.011830  -0.057488
    12  C    0.000002   0.000237  -0.000499   0.000007  -0.000000  -0.000054
    13  C   -0.000000  -0.000008   0.000054  -0.000001   0.000000   0.000011
    14  C    0.000000   0.000001   0.000000  -0.000000   0.000000  -0.000000
    15  C   -0.000000  -0.000001   0.000000   0.000000  -0.000000   0.000000
    16  C   -0.000000   0.000000   0.000001  -0.000000   0.000000  -0.000000
    17  C   -0.000001  -0.000006   0.000014  -0.000000   0.000000   0.000001
    18  H   -0.014614  -0.000015  -0.000000   0.000000  -0.000000   0.000000
    19  H    0.409786   0.000119   0.000008  -0.000000  -0.000000  -0.000000
    20  H    0.000119   0.454051  -0.000076  -0.000000   0.000000  -0.000000
    21  H    0.000008  -0.000076   0.593840  -0.009509  -0.000078   0.000008
    22  H   -0.000000  -0.000000  -0.009509   0.531819  -0.009476  -0.000137
    23  H   -0.000000   0.000000  -0.000078  -0.009476   0.518365  -0.008607
    24  H   -0.000000  -0.000000   0.000008  -0.000137  -0.008607   0.530725
    25  H   -0.000000  -0.000000  -0.000098   0.000009  -0.000070  -0.009097
    26  H   -0.000000   0.000000   0.000005   0.000001  -0.000000  -0.000004
    27  H   -0.000000  -0.000000  -0.000000  -0.000000   0.000000  -0.000000
    28  H    0.000000   0.000000  -0.000000   0.000000  -0.000000   0.000000
    29  H    0.000000   0.000000  -0.000000  -0.000000   0.000000  -0.000000
    30  H   -0.000003  -0.000010   0.000001  -0.000000  -0.000000  -0.000000
              25         26         27         28         29         30
     1  N    0.000001  -0.000000  -0.000000   0.000000  -0.000000   0.000032
     2  C   -0.000001  -0.000037  -0.000000   0.000000  -0.000000  -0.002298
     3  C   -0.000000   0.000027  -0.000000  -0.000000   0.000003  -0.000537
     4  C   -0.000560  -0.000724   0.000001   0.000000  -0.000021   0.004809
     5  N   -0.015062  -0.015943  -0.000058   0.000011  -0.000045  -0.013415
     6  C   -0.077262   0.010835  -0.000061   0.000000   0.000006  -0.000571
     7  C    0.014870  -0.001948   0.000002   0.000000  -0.000000   0.000018
     8  C   -0.002493   0.000032  -0.000000   0.000000  -0.000000   0.000001
     9  C    0.012774   0.000020   0.000000  -0.000000   0.000000  -0.000000
    10  C   -0.049574  -0.000519  -0.000000   0.000000  -0.000000   0.000001
    11  C    0.463396  -0.001162   0.000013   0.000000  -0.000000   0.000035
    12  C    0.009200  -0.074525   0.014495  -0.001878   0.014454  -0.085351
    13  C   -0.000988   0.460266  -0.054460   0.011522  -0.001880   0.016166
    14  C   -0.000514  -0.049681   0.454514  -0.059865   0.011635  -0.002688
    15  C    0.000021   0.012185  -0.058739   0.461254  -0.057581   0.013114
    16  C   -0.000005  -0.002612   0.012340  -0.060148   0.446647  -0.040939
    17  C   -0.001291   0.015375  -0.001799   0.012376  -0.050990   0.456527
    18  H    0.000000  -0.000000   0.000000  -0.000000  -0.000000   0.000048
    19  H   -0.000000  -0.000000  -0.000000   0.000000   0.000000  -0.000003
    20  H   -0.000000   0.000000  -0.000000   0.000000   0.000000  -0.000010
    21  H   -0.000098   0.000005  -0.000000  -0.000000  -0.000000   0.000001
    22  H    0.000009   0.000001  -0.000000   0.000000  -0.000000  -0.000000
    23  H   -0.000070  -0.000000   0.000000  -0.000000   0.000000  -0.000000
    24  H   -0.009097  -0.000004  -0.000000   0.000000  -0.000000  -0.000000
    25  H    0.570902   0.000007  -0.000003   0.000000  -0.000000   0.000011
    26  H    0.000007   0.570841  -0.009491  -0.000037   0.000009  -0.000142
    27  H   -0.000003  -0.009491   0.532927  -0.008421  -0.000130   0.000010
    28  H    0.000000  -0.000037  -0.008421   0.517885  -0.008245  -0.000083
    29  H   -0.000000   0.000009  -0.000130  -0.008245   0.526187  -0.010206
    30  H    0.000011  -0.000142   0.000010  -0.000083  -0.010206   0.600464
 Mulliken charges:
               1
     1  N   -0.081214
     2  C    0.250188
     3  C    0.134439
     4  C    0.186824
     5  N   -0.139887
     6  C    0.115480
     7  C    0.017435
     8  C    0.052439
     9  C    0.144951
    10  C    0.045599
    11  C    0.069634
    12  C    0.115461
    13  C    0.073729
    14  C    0.041327
    15  C    0.172124
    16  C    0.048994
    17  C    0.017302
    18  H    0.239747
    19  H    0.247796
    20  H    0.173657
    21  H    0.067876
    22  H    0.123746
    23  H    0.138176
    24  H    0.121479
    25  H    0.085826
    26  H    0.087222
    27  H    0.118859
    28  H    0.135628
    29  H    0.130159
    30  H    0.065006
 Sum of Mulliken charges =   3.00000
 Mulliken charges with hydrogens summed into heavy atoms:
               1
     1  N    0.406329
     2  C    0.250188
     3  C    0.308096
     4  C    0.186824
     5  N   -0.139887
     6  C    0.115480
     7  C    0.085311
     8  C    0.176186
     9  C    0.283127
    10  C    0.167077
    11  C    0.155459
    12  C    0.115461
    13  C    0.160951
    14  C    0.160186
    15  C    0.307751
    16  C    0.179153
    17  C    0.082308
 Electronic spatial extent (au):  <R**2>=           4049.7124
 Charge=              3.0000 electrons
[...]
 Alpha virt. eigenvalues --    0.20395   0.20707   0.21441   0.21926   0.23443
 Alpha virt. eigenvalues --    0.24483   0.25327   0.26219   0.28360   0.28963
 Alpha virt. eigenvalues --    0.29604   0.29772   0.30743   0.31148   0.32479
 Alpha virt. eigenvalues --    0.33060   0.33534   0.34077   0.34267   0.34781
 Alpha virt. eigenvalues --    0.36236   0.36880   0.37125   0.37272   0.38241
 Alpha virt. eigenvalues --    0.38629   0.38758   0.39936   0.40606   0.40896
 Alpha virt. eigenvalues --    0.41904   0.43030   0.43589   0.44104   0.45965
 Alpha virt. eigenvalues --    0.46487   0.47735   0.48301   0.51708   0.51948
 Alpha virt. eigenvalues --    0.54193   0.54634   0.56849   0.58190   0.59542
 Alpha virt. eigenvalues --    0.62228   0.67699   0.68611   0.69584   0.72017
 Alpha virt. eigenvalues --    0.73183   0.74297   0.76378   0.77675   0.80065
 Alpha virt. eigenvalues --    0.80480   0.84392   0.85471   0.86044   0.86770
 Alpha virt. eigenvalues --    0.88651   0.89476   0.89934   0.90144   0.92188
 Alpha virt. eigenvalues --    0.93160   0.94769   0.95662   0.96324   0.97552
 Alpha virt. eigenvalues --    0.98044   1.00410   1.04420   1.09440   1.13901
 Alpha virt. eigenvalues --    1.16719   1.20385   1.22463   1.23695   1.27077
 Alpha virt. eigenvalues --    1.28694   1.29779   1.29949   1.30929   1.31645
 Alpha virt. eigenvalues --    1.32014   1.33337   1.35181   1.35849   1.36237
 Alpha virt. eigenvalues --    1.36852   1.37229   1.37765   1.38705   1.39832
 Alpha virt. eigenvalues --    1.40084   1.41011   1.42685   1.42774   1.44170
 Alpha virt. eigenvalues --    1.45031   1.45449   1.46527   1.48319   1.49204
 Alpha virt. eigenvalues --    1.49953   1.50428   1.53983   1.57906   1.58799
 Alpha virt. eigenvalues --    1.59920   1.59995   1.60229   1.60325   1.62689
 Alpha virt. eigenvalues --    1.63021   1.63260   1.64799   1.65005   1.66324
 Alpha virt. eigenvalues --    1.66454   1.68916   1.71165   1.72334   1.74804
 Alpha virt. eigenvalues --    1.76274   1.77090   1.77853   1.79902   1.80372
 Alpha virt. eigenvalues --    1.81588   1.82187   1.84003   1.84498   1.85989
 Alpha virt. eigenvalues --    1.87065   1.88159   1.90902   1.91477   1.93072
 Alpha virt. eigenvalues --    1.93276   1.94231   1.96066   1.97146   1.97983
 Alpha virt. eigenvalues --    2.00336   2.04290   2.07014   2.12234   2.12993
 Alpha virt. eigenvalues --    2.15943   2.17392   2.17962   2.19682   2.21221
 Alpha virt. eigenvalues --    2.21472   2.22622   2.26377   2.26882   2.34916
 Alpha virt. eigenvalues --    2.35167   2.36011   2.36205   2.36678   2.38641
 Alpha virt. eigenvalues --    2.39790   2.42312   2.45788   2.46289   2.47283
 Alpha virt. eigenvalues --    2.48723   2.49218   2.56875   2.59710   2.66267
 Alpha virt. eigenvalues --    2.69501   2.71177   2.73258   2.76326   2.80944
 Alpha virt. eigenvalues --    2.86906   2.97364   3.01842   3.17061   3.19102
 Alpha virt. eigenvalues --    3.22177
          Condensed to atoms (all electrons):
               1          2          3          4          5          6
     1  N    5.658458   0.574602  -0.029936  -0.050282  -0.000460  -0.000149
     2  C    0.574602   4.787692   0.317913   0.275021  -0.027591  -0.008516
     3  C   -0.029936   0.317913   5.143038   0.147197  -0.039005   0.002634
     4  C   -0.050282   0.275021   0.147197   5.273316   0.310262  -0.052340
     5  N   -0.000460  -0.027591  -0.039005   0.310262   6.471659   0.324062
     6  C   -0.000149  -0.008516   0.002634  -0.052340   0.324062   5.410051
     7  C   -0.000197   0.000294  -0.000051  -0.001227  -0.063105   0.183181
     8  C    0.000018   0.000047   0.000011  -0.000310   0.005407   0.113809
     9  C    0.000000  -0.000006  -0.000001   0.000074  -0.000321  -0.132383
    10  C    0.000000   0.000003   0.000005   0.000016   0.007744   0.095811
    11  C   -0.000001   0.000264  -0.000281   0.005515  -0.068190   0.153329
    12  C   -0.000070   0.000209  -0.005499  -0.054241   0.321583  -0.074905
    13  C   -0.000000  -0.000406   0.000150   0.003614  -0.067498   0.009291
    14  C    0.000000   0.000012   0.000003   0.000081   0.007730   0.000574
    15  C   -0.000000  -0.000002  -0.000015   0.000067  -0.000315   0.000207
    16  C    0.000000   0.000052   0.000015   0.000262   0.005116  -0.000319
    17  C   -0.000006  -0.000972   0.001500  -0.002919  -0.060695   0.005997
    18  H    0.380102  -0.018213   0.006938  -0.017208   0.000256   0.000107
    19  H    0.349034   0.004947  -0.011375   0.010852  -0.000046  -0.000011
    20  H   -0.000648  -0.032047   0.448107  -0.048223  -0.000924  -0.000069
    21  H    0.000933   0.000488  -0.000791   0.000431  -0.008960  -0.072171
    22  H   -0.000001   0.000002  -0.000001  -0.000020  -0.000061   0.011128
    23  H   -0.000000  -0.000000   0.000000  -0.000000   0.000008  -0.001311
    24  H    0.000000   0.000000  -0.000000   0.000004  -0.000043   0.010296
    25  H   -0.000000   0.000004  -0.000018  -0.000678  -0.013020  -0.050525
    26  H   -0.000000  -0.000052   0.000014  -0.000904  -0.013182   0.004883
    27  H   -0.000000  -0.000000   0.000000   0.000003  -0.000043  -0.000056
    28  H    0.000000   0.000000  -0.000000   0.000000   0.000008  -0.000000
    29  H   -0.000000  -0.000001   0.000005  -0.000026  -0.000058   0.000005
    30  H   -0.000014  -0.001600  -0.000316   0.003018  -0.008644  -0.000309
               7          8          9         10         11         12
     1  N   -0.000197   0.000018   0.000000   0.000000  -0.000001  -0.000070
     2  C    0.000294   0.000047  -0.000006   0.000003   0.000264   0.000209
     3  C   -0.000051   0.000011  -0.000001   0.000005  -0.000281  -0.005499
     4  C   -0.001227  -0.000310   0.000074   0.000016   0.005515  -0.054241
     5  N   -0.063105   0.005407  -0.000321   0.007744  -0.068190   0.321583
     6  C    0.183181   0.113809  -0.132383   0.095811   0.153329  -0.074905
     7  C    5.107429   0.338315   0.064095  -0.112479   0.040918   0.005784
     8  C    0.338315   4.927717   0.249275   0.084188  -0.122559  -0.000358
     9  C    0.064095   0.249275   4.966427   0.287913   0.080800   0.000230
    10  C   -0.112479   0.084188   0.287913   4.960205   0.282077   0.000515
    11  C    0.040918  -0.122559   0.080800   0.282077   5.163442   0.009488
    12  C    0.005784  -0.000358   0.000230   0.000515   0.009488   5.405196
    13  C    0.001545  -0.000333  -0.000045  -0.004785   0.023958   0.154546
    14  C   -0.000198   0.000013  -0.000044   0.000412  -0.004684   0.093412
    15  C    0.000007  -0.000001   0.000001  -0.000041  -0.000026  -0.131042
    16  C   -0.000009   0.000000  -0.000001   0.000012  -0.000334   0.114735
    17  C   -0.000245  -0.000009   0.000007  -0.000194   0.001525   0.186423
    18  H    0.000507   0.000035   0.000002  -0.000002   0.000005  -0.000013
    19  H   -0.000001  -0.000000  -0.000000   0.000000  -0.000000   0.000006
    20  H   -0.000009   0.000000  -0.000000   0.000000  -0.000000   0.000523
    21  H    0.441639  -0.030236   0.010341  -0.001793   0.008777  -0.000428
    22  H   -0.047279   0.436620  -0.044949   0.008712  -0.001061   0.000006
    23  H    0.010376  -0.049153   0.438982  -0.048972   0.010847   0.000000
    24  H   -0.001185   0.008692  -0.044643   0.441772  -0.050750  -0.000058
    25  H    0.007439  -0.001189   0.008880  -0.032577   0.425693   0.004921
    26  H    0.000233  -0.000280   0.000483  -0.003951   0.004150  -0.048916
    27  H   -0.000003   0.000001  -0.000001   0.000038  -0.000075   0.010121
    28  H    0.000000   0.000000   0.000000   0.000000  -0.000002  -0.001272
    29  H   -0.000000   0.000000   0.000000  -0.000000   0.000001   0.011023
    30  H    0.000015  -0.000000   0.000000  -0.000001   0.000047  -0.069825
              13         14         15         16         17         18
     1  N   -0.000000   0.000000  -0.000000   0.000000  -0.000006   0.380102
     2  C   -0.000406   0.000012  -0.000002   0.000052  -0.000972  -0.018213
     3  C    0.000150   0.000003  -0.000015   0.000015   0.001500   0.006938
     4  C    0.003614   0.000081   0.000067   0.000262  -0.002919  -0.017208
     5  N   -0.067498   0.007730  -0.000315   0.005116  -0.060695   0.000256
     6  C    0.009291   0.000574   0.000207  -0.000319   0.005997   0.000107
     7  C    0.001545  -0.000198   0.000007  -0.000009  -0.000245   0.000507
     8  C   -0.000333   0.000013  -0.000001   0.000000  -0.000009   0.000035
     9  C   -0.000045  -0.000044   0.000001  -0.000001   0.000007   0.000002
    10  C   -0.004785   0.000412  -0.000041   0.000012  -0.000194  -0.000002
    11  C    0.023958  -0.004684  -0.000026  -0.000334   0.001525   0.000005
    12  C    0.154546   0.093412  -0.131042   0.114735   0.186423  -0.000013
    13  C    5.153990   0.288140   0.080604  -0.122459   0.040211   0.000000
    14  C    0.288140   4.956493   0.286432   0.083037  -0.110266  -0.000000
    15  C    0.080604   0.286432   4.966290   0.246364   0.063658   0.000000
    16  C   -0.122459   0.083037   0.246364   4.924656   0.343908   0.000000
    17  C    0.040211  -0.110266   0.063658   0.343908   5.076203   0.000002
    18  H    0.000000  -0.000000   0.000000   0.000000   0.000002   0.436399
    19  H   -0.000000   0.000000  -0.000000  -0.000000  -0.000001  -0.017339
    20  H   -0.000004   0.000000  -0.000000  -0.000002   0.000237  -0.000042
    21  H    0.000059  -0.000000   0.000000   0.000000   0.000011   0.000330
    22  H    0.000001  -0.000000   0.000000   0.000000  -0.000000  -0.000000
    23  H   -0.000003   0.000000   0.000000   0.000000   0.000000  -0.000000
    24  H   -0.000068   0.000038  -0.000001   0.000001  -0.000003   0.000000
    25  H    0.003849  -0.003745   0.000435  -0.000248   0.000258  -0.000000
    26  H    0.423882  -0.032119   0.008751  -0.001164   0.007212  -0.000000
    27  H   -0.049946   0.440807  -0.044136   0.008572  -0.001161   0.000000
    28  H    0.010734  -0.048611   0.438120  -0.048434   0.010193  -0.000000
    29  H   -0.001071   0.008629  -0.045189   0.436005  -0.045910  -0.000000
    30  H    0.008688  -0.001782   0.010334  -0.031084   0.442442   0.000002
              19         20         21         22         23         24
     1  N    0.349034  -0.000648   0.000933  -0.000001  -0.000000   0.000000
     2  C    0.004947  -0.032047   0.000488   0.000002  -0.000000   0.000000
     3  C   -0.011375   0.448107  -0.000791  -0.000001   0.000000  -0.000000
     4  C    0.010852  -0.048223   0.000431  -0.000020  -0.000000   0.000004
     5  N   -0.000046  -0.000924  -0.008960  -0.000061   0.000008  -0.000043
     6  C   -0.000011  -0.000069  -0.072171   0.011128  -0.001311   0.010296
     7  C   -0.000001  -0.000009   0.441639  -0.047279   0.010376  -0.001185
     8  C   -0.000000   0.000000  -0.030236   0.436620  -0.049153   0.008692
     9  C   -0.000000  -0.000000   0.010341  -0.044949   0.438982  -0.044643
    10  C    0.000000   0.000000  -0.001793   0.008712  -0.048972   0.441772
    11  C   -0.000000  -0.000000   0.008777  -0.001061   0.010847  -0.050750
    12  C    0.000006   0.000523  -0.000428   0.000006   0.000000  -0.000058
    13  C   -0.000000  -0.000004   0.000059   0.000001  -0.000003  -0.000068
    14  C    0.000000   0.000000  -0.000000  -0.000000   0.000000   0.000038
    15  C   -0.000000  -0.000000   0.000000   0.000000   0.000000  -0.000001
    16  C   -0.000000  -0.000002   0.000000   0.000000   0.000000   0.000001
    17  C   -0.000001   0.000237   0.000011  -0.000000   0.000000  -0.000003
    18  H   -0.017339  -0.000042   0.000330  -0.000000  -0.000000   0.000000
    19  H    0.414471   0.000300  -0.000029   0.000000  -0.000000   0.000000
    20  H    0.000300   0.457688  -0.000008   0.000000   0.000000  -0.000000
    21  H   -0.000029  -0.000008   0.572855  -0.009150  -0.000081   0.000008
    22  H    0.000000   0.000000  -0.009150   0.516222  -0.007367  -0.000067
    23  H   -0.000000   0.000000  -0.000081  -0.007367   0.503971  -0.007824
    24  H    0.000000  -0.000000   0.000008  -0.000067  -0.007824   0.516318
    25  H    0.000000  -0.000000  -0.000041   0.000007  -0.000079  -0.007635
    26  H   -0.000000  -0.000000   0.000018  -0.000002   0.000004  -0.000053
    27  H   -0.000000  -0.000000  -0.000000  -0.000000   0.000000   0.000002
    28  H    0.000000  -0.000000   0.000000   0.000000  -0.000000   0.000000
    29  H    0.000000   0.000001  -0.000000  -0.000000   0.000000  -0.000000
    30  H   -0.000001  -0.000064   0.000000  -0.000000  -0.000000  -0.000000
              25         26         27         28         29         30
     1  N   -0.000000  -0.000000  -0.000000   0.000000  -0.000000  -0.000014
     2  C    0.000004  -0.000052  -0.000000   0.000000  -0.000001  -0.001600
     3  C   -0.000018   0.000014   0.000000  -0.000000   0.000005  -0.000316
     4  C   -0.000678  -0.000904   0.000003   0.000000  -0.000026   0.003018
     5  N   -0.013020  -0.013182  -0.000043   0.000008  -0.000058  -0.008644
     6  C   -0.050525   0.004883  -0.000056  -0.000000   0.000005  -0.000309
     7  C    0.007439   0.000233  -0.000003   0.000000  -0.000000   0.000015
     8  C   -0.001189  -0.000280   0.000001   0.000000   0.000000  -0.000000
     9  C    0.008880   0.000483  -0.000001   0.000000   0.000000   0.000000
    10  C   -0.032577  -0.003951   0.000038   0.000000  -0.000000  -0.000001
    11  C    0.425693   0.004150  -0.000075  -0.000002   0.000001   0.000047
    12  C    0.004921  -0.048916   0.010121  -0.001272   0.011023  -0.069825
    13  C    0.003849   0.423882  -0.049946   0.010734  -0.001071   0.008688
    14  C   -0.003745  -0.032119   0.440807  -0.048611   0.008629  -0.001782
    15  C    0.000435   0.008751  -0.044136   0.438120  -0.045189   0.010334
    16  C   -0.000248  -0.001164   0.008572  -0.048434   0.436005  -0.031084
    17  C    0.000258   0.007212  -0.001161   0.010193  -0.045910   0.442442
    18  H   -0.000000  -0.000000   0.000000  -0.000000  -0.000000   0.000002
    19  H    0.000000  -0.000000  -0.000000   0.000000   0.000000  -0.000001
    20  H   -0.000000  -0.000000  -0.000000  -0.000000   0.000001  -0.000064
    21  H   -0.000041   0.000018  -0.000000   0.000000  -0.000000   0.000000
    22  H    0.000007  -0.000002  -0.000000   0.000000  -0.000000  -0.000000
    23  H   -0.000079   0.000004   0.000000  -0.000000   0.000000  -0.000000
    24  H   -0.007635  -0.000053   0.000002   0.000000  -0.000000  -0.000000
    25  H    0.527175  -0.000062  -0.000049   0.000004  -0.000002   0.000029
    26  H   -0.000062   0.526780  -0.007591  -0.000079   0.000007  -0.000043
    27  H   -0.000049  -0.007591   0.515293  -0.007749  -0.000065   0.000008
    28  H    0.000004  -0.000079  -0.007749   0.502026  -0.007275  -0.000076
    29  H   -0.000002   0.000007  -0.000065  -0.007275   0.513450  -0.009116
    30  H    0.000029  -0.000043   0.000008  -0.000076  -0.009116   0.565924
 Mulliken charges:
               1
     1  N    0.118617
     2  C    0.127857
     3  C    0.019757
     4  C    0.198641
     5  N   -0.081674
     6  C    0.067699
     7  C    0.024211
     8  C    0.040278
     9  C    0.114883
    10  C    0.035369
    11  C    0.037127
    12  C    0.067908
    13  C    0.043355
    14  C    0.035634
    15  C    0.119499
    16  C    0.041318
    17  C    0.042593
    18  H    0.228134
    19  H    0.249193
    20  H    0.175186
    21  H    0.087798
    22  H    0.137258
    23  H    0.150601
    24  H    0.135198
    25  H    0.131176
    26  H    0.131984
    27  H    0.136030
    28  H    0.152415
    29  H    0.139586
    30  H    0.092369
 Sum of Mulliken charges =   3.00000
 Mulliken charges with hydrogens summed into heavy atoms:
               1
     1  N    0.595944
     2  C    0.127857
     3  C    0.194943
     4  C    0.198641
     5  N   -0.081674
     6  C    0.067699
     7  C    0.112008
     8  C    0.177537
     9  C    0.265485
    10  C    0.170567
    11  C    0.168303
    12  C    0.067908
    13  C    0.175338
    14  C    0.171665
    15  C    0.271914
    16  C    0.180903
    17  C    0.134961
 Electronic spatial extent (au):  <R**2>=           3957.5542
 Charge=              3.0000 electrons
 Dipole moment (field-independent basis, Debye):
    X=             -3.0163    Y=              5.2786    Z=              0.3462  Tot=              6.0895
 Quadrupole moment (field-independent basis, Debye-Ang):
   XX=             20.6400   YY=              8.0919   ZZ=            -82.0375
   XY=            -10.6022   XZ=             -0.4703   YZ=              0.6765
 Traceless Quadrupole moment (field-independent basis, Debye-Ang):
   XX=             38.4085   YY=             25.8605   ZZ=            -64.2690
   XY=            -10.6022   XZ=             -0.4703   YZ=              0.6765
 Octapole moment (field-independent basis, Debye-Ang**2):
  XXX=             61.8996  YYY=            112.2163  ZZZ=              1.8318  XYY=           -143.3792
  XXY=             12.9684  XXZ=              7.6148  XZZ=             -5.2640  YZZ=              0.6715
  YYZ=             12.0993  XYZ=             -0.3560
 Hexadecapole moment (field-independent basis, Debye-Ang**3):
 XXXX=          -1130.1594 YYYY=           -862.7332 ZZZZ=           -251.6001 XXXY=           -174.8625
 XXXZ=             31.6688 YYYX=           -180.3488 YYYZ=            -72.2220 ZZZX=              0.4962
 ZZZY=             -1.0000 XXYY=           -202.5953 XXZZ=           -452.9154 YYZZ=           -326.4120
 XXYZ=            137.2925 YYXZ=            -73.2051 ZZXY=            -13.4103
 N-N= 1.082496749461D+03 E-N=-3.703923214179D+03  KE= 6.788629156662D+02
 No NMR shielding tensors so no spin-rotation constants.
 Leave Link  601 at Wed May 11 06:31:06 2022, MaxMem=  6442450944 cpu:               2.8 elap:               0.2
 (Enter /mnt/gpfs3_amd/share/apps/amd/gaussian/g16-A.03/g16/l9999.exe)

 Test job not archived.
 1\1\GINC-ROME019\FOpt\RLC-wHPBE\def2SVP\C15H13N2(3+)\RDU230\11-May-202
 2\0\\#P LC-wHPBE/Def2SVP iop(3/107=0225700000, 3/108=0225700000) opt s
 cf(maxcyc=512)\\H13 C15 N2\\3,1\N,-0.0147940616,4.2448704518,0.0291955
 375\C,0.6384313519,3.1498460301,-0.1681123404\C,1.8556032805,2.5182645
 51,-0.5275858202\C,0.7900154451,1.7499809322,-0.2282223391\N,0.2925738
 664,0.4423740906,-0.0752124819\C,-1.0636100167,0.1741877715,-0.1703544
 406\C,-1.9193335476,0.9020585878,-1.0501363134\C,-3.2291940774,0.48726
 25342,-1.1763217782\C,-3.728186702,-0.6143801726,-0.4081276327\C,-2.90
 26836981,-1.3182830214,0.4819208032\C,-1.5840686898,-0.9153219933,0.63
 70732118\C,1.1607713322,-0.6143991716,0.1483985971\C,0.7982097198,-1.9
 025317796,-0.4257885421\C,1.561637406,-3.023578925,-0.1426227887\C,2.7
 189066757,-2.8775646171,0.639993863\C,3.1014422946,-1.6048887674,1.177
 015964\C,2.3530246062,-0.4751550289,0.922815131\H,-0.9913121923,4.2606
 368156,0.3503975072\H,0.4440431283,5.159862853,-0.1022200172\H,2.91145
 65122,2.6342741002,-0.8225869199\H,-1.528724901,1.6979866768,-1.700154
 9377\H,-3.8977431352,0.9856236797,-1.8944578209\H,-4.7922923227,-0.887
 3507507,-0.4965966781\H,-3.3165524845,-2.1236145173,1.1060390926\H,-0.
 9743940718,-1.3048134002,1.4684676706\H,0.0211888414,-1.9382727775,-1.
 206497998\H,1.3161682225,-3.9949619113,-0.5961387719\H,3.3693934791,-3
 .7492623211,0.8190547177\H,3.99056387,-1.5413346583,1.8224938958\H,2.6
 194598688,0.4784857387,1.3986886294\\Version=AM64L-G16RevA.03\State=1-
 A\HF=-686.5542474\RMSD=7.848e-09\RMSF=7.803e-06\Dipole=0.4303571,2.356
 6873,-0.024561\Quadrupole=15.2041543,30.2068171,-45.4109713,-4.7993255
 ,10.4897765,-7.7898023\PG=C01 [X(C15H13N2)]\\@


 EDUCATION DOESN'T COST 
           ... IT PAYS!

 -- POSTMARK, UNIV. OF MISSISSIPPI, DEC 78
 Job cpu time:       0 days  6 hours 47 minutes 54.8 seconds.
 Elapsed time:       0 days  0 hours 25 minutes 54.1 seconds.
 File lengths (MBytes):  RWF=    168 Int=      0 D2E=      0 Chk=     16 Scr=     16
 Normal termination of Gaussian 16 at Wed May 11 06:31:06 2022.
