 Entering Gaussian System, Link 0=/mnt/gpfs3_amd/share/apps/amd/gaussian/g16-A.03/g16/g16
 Input=/scratch/rdu230/d3tales/high_throughput/runfiles//06IVBN/gaussian/tddft/energy/singlet_triplet_cation2.com
 Output=/scratch/rdu230/d3tales/high_throughput/runfiles//06IVBN/gaussian/tddft/energy/singlet_triplet_cation2.log
 Initial command:
 /mnt/gpfs3_amd/share/apps/amd/gaussian/g16-A.03/g16/l1.exe "/scratch/rdu230/d3tales/high_throughput/runfiles/06IVBN/gaussian/tddft/energy/Gau-1205298.inp" -scrdir="/scratch/rdu230/d3tales/high_throughput/runfiles/06IVBN/gaussian/tddft/energy/"
 Entering Link 1 = /mnt/gpfs3_amd/share/apps/amd/gaussian/g16-A.03/g16/l1.exe PID=   1205299.
  
 Copyright (c) 1988,1990,1992,1993,1995,1998,2003,2009,2016,
            Gaussian, Inc.  All Rights Reserved.
  
 This is part of the Gaussian(R) 16 program.  It is based on
 the Gaussian(R) 09 system (copyright 2009, Gaussian, Inc.),
 the Gaussian(R) 03 system (copyright 2003, Gaussian, Inc.),
 the Gaussian(R) 98 system (copyright 1998, Gaussian, Inc.),
 the Gaussian(R) 94 system (copyright 1995, Gaussian, Inc.),
 the Gaussian 92(TM) system (copyright 1992, Gaussian, Inc.),
 the Gaussian 90(TM) system (copyright 1990, Gaussian, Inc.),
 the Gaussian 88(TM) system (copyright 1988, Gaussian, Inc.),
 the Gaussian 86(TM) system (copyright 1986, Carnegie Mellon
 University), and the Gaussian 82(TM) system (copyright 1983,
 Carnegie Mellon University). Gaussian is a federally registered
 trademark of Gaussian, Inc.
  
 This software contains proprietary and confidential information,
 including trade secrets, belonging to Gaussian, Inc.
  
 This software is provided under written license and may be
 used, copied, transmitted, or stored only in accord with that
 written license.
  
 The following legend is applicable only to US Government
 contracts under FAR:
  
                    RESTRICTED RIGHTS LEGEND
  
 Use, reproduction and disclosure by the US Government is
 subject to restrictions as set forth in subparagraphs (a)
 and (c) of the Commercial Computer Software - Restricted
 Rights clause in FAR 52.227-19.
  
 Gaussian, Inc.
 340 Quinnipiac St., Bldg. 40, Wallingford CT 06492
  
  
 ---------------------------------------------------------------
 Warning -- This program may not be used in any manner that
 competes with the business of Gaussian, Inc. or will provide
 assistance to any competitor of Gaussian, Inc.  The licensee
 of this program is prohibited from giving any competitor of
 Gaussian, Inc. access to this program.  By using this program,
 the user acknowledges that Gaussian, Inc. is engaged in the
 business of creating and licensing software in the field of
 computational chemistry and represents and warrants to the
 licensee that it is not a competitor of Gaussian, Inc. and that
 it will not use this program in any manner prohibited above.
 ---------------------------------------------------------------
  

 Cite this work as:
 Gaussian 16, Revision A.03,
 M. J. Frisch, G. W. Trucks, H. B. Schlegel, G. E. Scuseria, 
 M. A. Robb, J. R. Cheeseman, G. Scalmani, V. Barone, 
 G. A. Petersson, H. Nakatsuji, X. Li, M. Caricato, A. V. Marenich, 
 J. Bloino, B. G. Janesko, R. Gomperts, B. Mennucci, H. P. Hratchian, 
 J. V. Ortiz, A. F. Izmaylov, J. L. Sonnenberg, D. Williams-Young, 
 F. Ding, F. Lipparini, F. Egidi, J. Goings, B. Peng, A. Petrone, 
 T. Henderson, D. Ranasinghe, V. G. Zakrzewski, J. Gao, N. Rega, 
 G. Zheng, W. Liang, M. Hada, M. Ehara, K. Toyota, R. Fukuda, 
 J. Hasegawa, M. Ishida, T. Nakajima, Y. Honda, O. Kitao, H. Nakai, 
 T. Vreven, K. Throssell, J. A. Montgomery, Jr., J. E. Peralta, 
 F. Ogliaro, M. J. Bearpark, J. J. Heyd, E. N. Brothers, K. N. Kudin, 
 V. N. Staroverov, T. A. Keith, R. Kobayashi, J. Normand, 
 K. Raghavachari, A. P. Rendell, J. C. Burant, S. S. Iyengar, 
 J. Tomasi, M. Cossi, J. M. Millam, M. Klene, C. Adamo, R. Cammi, 
 J. W. Ochterski, R. L. Martin, K. Morokuma, O. Farkas, 
 J. B. Foresman, and D. J. Fox, Gaussian, Inc., Wallingford CT, 2016.
 
 ******************************************
 Gaussian 16:  AM64L-G16RevA.03 25-Dec-2016
                11-May-2022 
 ******************************************
 %chk=/scratch/rdu230/d3tales/high_throughput/runfiles//06IVBN/gaussian/tddft/ene
 rgy/singlet_triplet_cation2.chk
 %mem=48GB
 %nprocshared=16
 Will use up to   16 processors via shared memory.
 ----------------------------------------------------------------------
 #P LC-wHPBE/Def2SVP iop(3/107=0225700000, 3/108=0225700000) td=(50-50,
 nstates=15)
 ----------------------------------------------------------------------
 1/38=1,172=1/1;
 2/12=2,17=6,18=5,40=1/2;
 3/5=43,7=101,11=9,25=1,30=1,74=-71,107=225700000,108=225700000/1,2,3,8;
 4//1;
 5/5=2,38=5/2;
 8/6=1,10=1,108=15/1;
 9/41=15,42=1,48=2,70=2/14;
 6/7=2,8=2,9=2,10=2/1;
 99/5=1,9=1/99;
 Leave Link    1 at Wed May 11 06:43:45 2022, MaxMem=  6442450944 cpu:               5.8 elap:               0.4
 (Enter /mnt/gpfs3_amd/share/apps/amd/gaussian/g16-A.03/g16/l101.exe)
 ----------
 H13 C15 N2
 ----------
 Symbolic Z-matrix:
 Charge =  3 Multiplicity = 1
 N                    -2.70621   3.16811   0.45709 
 C                    -1.55418   2.74779   0.05602 
 C                    -0.30532   3.04076  -0.54743 
 C                    -0.5581    1.77482  -0.16161 
 N                    -0.06799   0.45946  -0.05997 
 C                    -0.92877  -0.62263   0.03137 
 C                    -2.19278  -0.64244  -0.63043 
 C                    -2.93093  -1.80747  -0.59094 
 C                    -2.46219  -2.94989   0.13561 
 C                    -1.23423  -2.93099   0.8145 
 C                    -0.47674  -1.76857   0.801 
 C                     1.29661   0.21838  -0.07694 
 C                     1.74368  -1.01477  -0.70931 
 C                     3.08169  -1.3709   -0.65764 
 C                     3.99595  -0.49182  -0.05397 
 C                     3.56697   0.7414    0.53727 
 C                     2.23989   1.11463   0.51258 
 H                    -3.38885   2.55901   0.92613 
 H                    -2.9707    4.1593    0.34482 
 H                     0.35731   3.80238  -0.99034 
 H                    -2.52611   0.19979  -1.25343 
 H                    -3.87916  -1.87746  -1.14503 
 H                    -3.10016  -3.84707   0.18766 
 H                    -0.91699  -3.79611   1.41475 
 H                     0.37843  -1.65034   1.48608 
 H                     1.04389  -1.56433  -1.35956 
 H                     3.43602  -2.28335  -1.15903 
 H                     5.07146  -0.73317  -0.06306 
 H                     4.30842   1.38085   1.03983 
 H                     1.91661   2.02766   1.03099 
 
 ITRead=  0  0  0  0  0  0  0  0  0  0  0  0  0  0  0  0  0  0  0  0
 ITRead=  0  0  0  0  0  0  0  0  0  0
 MicOpt= -1 -1 -1 -1 -1 -1 -1 -1 -1 -1 -1 -1 -1 -1 -1 -1 -1 -1 -1 -1
 MicOpt= -1 -1 -1 -1 -1 -1 -1 -1 -1 -1
 NAtoms=     30 NQM=       30 NQMF=       0 NMMI=      0 NMMIF=      0
                NMic=       0 NMicF=      0.
                    Isotopes and Nuclear Properties:
 (Nuclear quadrupole moments (NQMom) in fm**2, nuclear magnetic moments (NMagM)
  in nuclear magnetons)

  Atom         1           2           3           4           5           6           7           8           9          10
 IAtWgt=          14          12          12          12          14          12          12          12          12          12
 AtmWgt=  14.0030740  12.0000000  12.0000000  12.0000000  14.0030740  12.0000000  12.0000000  12.0000000  12.0000000  12.0000000
 NucSpn=           2           0           0           0           2           0           0           0           0           0
 AtZEff=  -0.0000000  -0.0000000  -0.0000000  -0.0000000  -0.0000000  -0.0000000  -0.0000000  -0.0000000  -0.0000000  -0.0000000
 NQMom=    2.0440000   0.0000000   0.0000000   0.0000000   2.0440000   0.0000000   0.0000000   0.0000000   0.0000000   0.0000000
 NMagM=    0.4037610   0.0000000   0.0000000   0.0000000   0.4037610   0.0000000   0.0000000   0.0000000   0.0000000   0.0000000
 AtZNuc=   7.0000000   6.0000000   6.0000000   6.0000000   7.0000000   6.0000000   6.0000000   6.0000000   6.0000000   6.0000000

  Atom        11          12          13          14          15          16          17          18          19          20
 IAtWgt=          12          12          12          12          12          12          12           1           1           1
 AtmWgt=  12.0000000  12.0000000  12.0000000  12.0000000  12.0000000  12.0000000  12.0000000   1.0078250   1.0078250   1.0078250
 NucSpn=           0           0           0           0           0           0           0           1           1           1
 AtZEff=  -0.0000000  -0.0000000  -0.0000000  -0.0000000  -0.0000000  -0.0000000  -0.0000000  -0.0000000  -0.0000000  -0.0000000
 NQMom=    0.0000000   0.0000000   0.0000000   0.0000000   0.0000000   0.0000000   0.0000000   0.0000000   0.0000000   0.0000000
 NMagM=    0.0000000   0.0000000   0.0000000   0.0000000   0.0000000   0.0000000   0.0000000   2.7928460   2.7928460   2.7928460
 AtZNuc=   6.0000000   6.0000000   6.0000000   6.0000000   6.0000000   6.0000000   6.0000000   1.0000000   1.0000000   1.0000000

  Atom        21          22          23          24          25          26          27          28          29          30
 IAtWgt=           1           1           1           1           1           1           1           1           1           1
 AtmWgt=   1.0078250   1.0078250   1.0078250   1.0078250   1.0078250   1.0078250   1.0078250   1.0078250   1.0078250   1.0078250
 NucSpn=           1           1           1           1           1           1           1           1           1           1
 AtZEff=  -0.0000000  -0.0000000  -0.0000000  -0.0000000  -0.0000000  -0.0000000  -0.0000000  -0.0000000  -0.0000000  -0.0000000
 NQMom=    0.0000000   0.0000000   0.0000000   0.0000000   0.0000000   0.0000000   0.0000000   0.0000000   0.0000000   0.0000000
 NMagM=    2.7928460   2.7928460   2.7928460   2.7928460   2.7928460   2.7928460   2.7928460   2.7928460   2.7928460   2.7928460
 AtZNuc=   1.0000000   1.0000000   1.0000000   1.0000000   1.0000000   1.0000000   1.0000000   1.0000000   1.0000000   1.0000000
 Leave Link  101 at Wed May 11 06:43:45 2022, MaxMem=  6442450944 cpu:               0.7 elap:               0.1
 (Enter /mnt/gpfs3_amd/share/apps/amd/gaussian/g16-A.03/g16/l202.exe)
                          Input orientation:                          
 ---------------------------------------------------------------------
 Center     Atomic      Atomic             Coordinates (Angstroms)
 Number     Number       Type             X           Y           Z
 ---------------------------------------------------------------------
      1          7           0       -2.706212    3.168114    0.457087
      2          6           0       -1.554178    2.747790    0.056017
      3          6           0       -0.305319    3.040756   -0.547428
      4          6           0       -0.558100    1.774816   -0.161614
      5          7           0       -0.067993    0.459461   -0.059972
      6          6           0       -0.928772   -0.622633    0.031365
      7          6           0       -2.192779   -0.642440   -0.630427
      8          6           0       -2.930932   -1.807466   -0.590944
      9          6           0       -2.462186   -2.949889    0.135608
     10          6           0       -1.234233   -2.930991    0.814501
     11          6           0       -0.476736   -1.768574    0.800995
     12          6           0        1.296607    0.218381   -0.076937
     13          6           0        1.743683   -1.014767   -0.709310
     14          6           0        3.081686   -1.370898   -0.657643
     15          6           0        3.995951   -0.491819   -0.053970
     16          6           0        3.566965    0.741403    0.537270
     17          6           0        2.239886    1.114632    0.512584
     18          1           0       -3.388854    2.559012    0.926132
     19          1           0       -2.970695    4.159303    0.344817
     20          1           0        0.357311    3.802376   -0.990335
     21          1           0       -2.526112    0.199791   -1.253434
     22          1           0       -3.879155   -1.877463   -1.145032
     23          1           0       -3.100159   -3.847074    0.187659
     24          1           0       -0.916986   -3.796106    1.414752
     25          1           0        0.378428   -1.650340    1.486077
     26          1           0        1.043893   -1.564327   -1.359561
     27          1           0        3.436020   -2.283352   -1.159032
     28          1           0        5.071459   -0.733172   -0.063059
     29          1           0        4.308421    1.380850    1.039832
     30          1           0        1.916608    2.027663    1.030986
 ---------------------------------------------------------------------
                    Distance matrix (angstroms):
                    1          2          3          4          5
     1  N    0.000000
     2  C    1.290237   0.000000
     3  C    2.605678   1.417612   0.000000
     4  C    2.634095   1.409331   1.347351   0.000000
     5  N    3.816327   2.731053   2.637617   1.407372   0.000000
     6  C    4.208360   3.428045   3.760866   2.433598   1.385717
     7  C    3.995826   3.517481   4.139484   2.955518   2.460553
     8  C    5.089721   4.802538   5.513710   4.318264   3.690164
     9  C    6.131302   5.770126   6.403627   5.102619   4.170621
    10  C    6.284389   5.738137   6.195119   4.853306   3.690526
    11  C    5.427681   4.702491   4.997728   3.672717   2.423319
    12  C    5.000867   3.813471   3.279227   2.422725   1.385836
    13  C    6.217599   5.061467   4.546634   3.657861   2.424285
    14  C    7.439423   6.242126   5.562971   4.836280   3.691599
    15  C    7.653449   6.427371   5.587800   5.088084   4.173800
    16  C    6.726671   5.521168   4.632297   4.309587   3.694470
    17  C    5.355722   4.155789   3.363279   2.952814   2.466450
    18  H    1.028109   2.039307   3.451325   3.132303   4.050757
    19  H    1.031994   2.020469   3.025141   3.429703   4.719996
    20  H    3.447099   2.420908   1.102411   2.373975   3.495932
    21  H    3.430635   3.025164   3.674432   2.746970   2.744837
    22  H    5.422216   5.314226   6.108872   5.033454   4.600383
    23  H    7.031404   6.774926   7.469517   6.179782   5.272722
    24  H    7.253883   6.713773   7.139115   5.800767   4.583170
    25  H    5.813030   5.012343   5.158395   3.914545   2.653454
    26  H    6.305513   5.229549   4.866901   3.892472   2.649706
    27  H    8.370026   7.189632   6.535886   5.780706   4.583564
    28  H    8.716809   7.485342   6.586872   6.163737   5.276016
    29  H    7.262161   6.099712   5.153764   5.028092   4.605597
    30  H    4.795879   3.676344   2.907698   2.758696   2.754648
                    6          7          8          9         10
     6  C    0.000000
     7  C    1.426911   0.000000
     8  C    2.408265   1.379752   0.000000
     9  C    2.788969   2.446162   1.432735   0.000000
    10  C    2.456649   2.871253   2.473130   1.403254   0.000000
    11  C    1.452531   2.502389   2.821717   2.404216   1.387515
    12  C    2.381459   3.636369   4.715967   4.920532   4.137434
    13  C    2.800783   3.954818   4.742827   4.706157   3.855113
    14  C    4.137440   5.324601   6.028815   5.818675   4.819570
    15  C    4.927199   6.217344   7.071137   6.912712   5.835977
    16  C    4.725271   6.037648   7.070521   7.080793   6.051019
    17  C    3.645553   4.903294   6.041009   6.226710   5.341135
    18  H    4.120131   3.755365   4.645142   5.641953   5.898727
    19  H    5.209090   4.961148   6.039831   7.130425   7.314928
    20  H    4.720020   5.137011   6.514782   7.403404   7.150432
    21  H    2.208752   1.099364   2.152174   3.442965   3.968262
    22  H    3.415153   2.152664   1.100473   2.190419   3.456198
    23  H    3.890549   3.429618   2.189717   1.102116   2.171133
    24  H    3.461911   3.969385   3.468931   2.177139   1.099714
    25  H    2.209330   3.479448   3.910316   3.403187   2.166046
    26  H    2.590921   3.443480   4.055752   4.055601   3.432808
    27  H    4.819382   5.886883   6.409935   6.075294   5.111314
    28  H    6.001992   7.286926   8.091417   7.855515   6.735152
    29  H    5.697292   7.010640   8.076696   8.087895   7.025935
    30  H    4.014910   5.174631   6.390424   6.689661   5.879023
                   11         12         13         14         15
    11  C    0.000000
    12  C    2.804193   0.000000
    13  C    2.789177   1.456168   0.000000
    14  C    3.866282   2.459580   1.385551   0.000000
    15  C    4.729270   2.791302   2.403260   1.404664   0.000000
    16  C    4.766661   2.409425   2.821782   2.474900   1.433328
    17  C    3.971913   1.428487   2.504712   2.873311   2.446514
    18  H    5.217671   5.332752   6.464480   7.734366   8.050063
    19  H    6.447298   5.823968   7.078668   8.259501   8.386067
    20  H    5.911005   3.815966   5.020545   5.856250   5.705838
    21  H    3.506434   3.999709   4.472401   5.854010   6.667409
    22  H    3.921139   5.685235   5.705296   6.996246   8.070175
    23  H    3.402748   5.994121   5.682369   6.712763   7.853082
    24  H    2.163655   4.820917   4.396208   5.115255   6.100197
    25  H    1.102099   2.603495   2.662254   3.461391   4.098828
    26  H    2.649912   2.210664   1.102066   2.163956   3.401395
    27  H    4.406400   3.465066   2.162305   1.099780   2.178136
    28  H    5.709739   3.892962   3.401622   2.172423   1.102294
    29  H    5.733554   3.416069   3.921270   3.458094   2.191102
    30  H    4.493596   2.210293   3.509261   3.969772   3.442178
                   16         17         18         19         20
    16  C    0.000000
    17  C    1.378785   0.000000
    18  H    7.199884   5.825802   0.000000
    19  H    7.379707   6.037245   1.753201   0.000000
    20  H    4.690950   3.609269   4.387773   3.603561   0.000000
    21  H    6.373818   5.164348   3.325771   4.292994   4.621901
    22  H    8.070521   7.010206   4.920612   6.283907   7.087464
    23  H    8.101043   7.296587   6.454969   8.008966   8.476783
    24  H    6.439315   5.907207   6.836403   8.285591   8.071258
    25  H    4.097248   3.472432   5.676671   6.802283   5.988754
    26  H    3.908996   3.480251   6.471133   7.195955   5.423027
    27  H    3.470408   3.971314   8.624112   9.209526   6.822243
    28  H    2.190495   3.429803   9.132024   9.422256   6.607135
    29  H    1.100554   2.151209   7.787749   7.822300   5.059312
    30  H    2.149860   1.098579   5.333034   5.375914   3.109140
                   21         22         23         24         25
    21  H    0.000000
    22  H    2.481423   0.000000
    23  H    4.333981   2.502452   0.000000
    24  H    5.067119   4.359831   2.504915   0.000000
    25  H    4.400484   5.010123   4.314174   2.507488   0.000000
    26  H    3.983505   4.937659   4.977750   4.064812   2.923679
    27  H    6.459251   7.326440   6.854228   5.278395   4.092209
    28  H    7.746644   9.088100   8.748405   6.886724   5.026486
    29  H    7.305122   9.078912   9.107384   7.365210   4.983181
    30  H    5.319535   7.319558   7.771209   6.487898   4.012582
                   26         27         28         29         30
    26  H    0.000000
    27  H    2.505889   0.000000
    28  H    4.311963   2.505768   0.000000
    29  H    5.008822   4.361475   2.503534   0.000000
    30  H    4.402129   5.068495   4.332693   2.477744   0.000000
 Stoichiometry    C15H13N2(3+)
 Framework group  C1[X(C15H13N2)]
 Deg. of freedom    84
 Full point group                 C1      NOp   1
 Largest Abelian subgroup         C1      NOp   1
 Largest concise Abelian subgroup C1      NOp   1
                         Standard orientation:                         
 ---------------------------------------------------------------------
 Center     Atomic      Atomic             Coordinates (Angstroms)
 Number     Number       Type             X           Y           Z
 ---------------------------------------------------------------------
      1          7           0       -2.706212    3.168114    0.457087
      2          6           0       -1.554178    2.747790    0.056017
      3          6           0       -0.305319    3.040756   -0.547428
      4          6           0       -0.558100    1.774816   -0.161614
      5          7           0       -0.067993    0.459461   -0.059972
      6          6           0       -0.928772   -0.622633    0.031365
      7          6           0       -2.192779   -0.642440   -0.630427
      8          6           0       -2.930932   -1.807466   -0.590944
      9          6           0       -2.462186   -2.949889    0.135608
     10          6           0       -1.234233   -2.930991    0.814501
     11          6           0       -0.476736   -1.768574    0.800995
     12          6           0        1.296607    0.218381   -0.076937
     13          6           0        1.743683   -1.014767   -0.709310
     14          6           0        3.081686   -1.370898   -0.657643
     15          6           0        3.995951   -0.491819   -0.053970
     16          6           0        3.566965    0.741403    0.537270
     17          6           0        2.239886    1.114632    0.512584
     18          1           0       -3.388854    2.559012    0.926132
     19          1           0       -2.970695    4.159303    0.344817
     20          1           0        0.357311    3.802376   -0.990335
     21          1           0       -2.526112    0.199791   -1.253434
     22          1           0       -3.879155   -1.877463   -1.145032
     23          1           0       -3.100159   -3.847074    0.187659
     24          1           0       -0.916986   -3.796106    1.414752
     25          1           0        0.378428   -1.650340    1.486077
     26          1           0        1.043893   -1.564327   -1.359561
     27          1           0        3.436020   -2.283352   -1.159032
     28          1           0        5.071459   -0.733172   -0.063059
     29          1           0        4.308421    1.380850    1.039832
     30          1           0        1.916608    2.027663    1.030986
 ---------------------------------------------------------------------
 Rotational constants (GHZ):           0.5681277           0.4375834           0.2637707
 Leave Link  202 at Wed May 11 06:43:45 2022, MaxMem=  6442450944 cpu:               0.1 elap:               0.0
 (Enter /mnt/gpfs3_amd/share/apps/amd/gaussian/g16-A.03/g16/l301.exe)
 Standard basis: def2SVP (5D, 7F)
 Ernie: Thresh=  0.10000D-02 Tol=  0.10000D-05 Strict=F.
 There are   320 symmetry adapted cartesian basis functions of A   symmetry.
 There are   303 symmetry adapted basis functions of A   symmetry.
   303 basis functions,   516 primitive gaussians,   320 cartesian basis functions
    57 alpha electrons       57 beta electrons
       nuclear repulsion energy      1082.4967372408 Hartrees.
 IExCor=33909 DFT=T Ex+Corr=LC-wHPBE ExCW=0 ScaHFX=  1.000000
 ScaDFX=  1.000000  1.000000  1.000000  1.000000 ScalE2=  1.000000  1.000000
 IRadAn=      5 IRanWt=     -1 IRanGd=            0 ICorTp=0 IEmpDi=  4
 HFx  wShort=  0.000000 wLong=  0.225700 cFull=  0.000000 cShort=  0.000000 cLong=  1.000000
 DFx  wShort=  0.000000 wLong=  0.225700 cFull=  0.000000 cShort=  1.000000 cLong=  0.000000
 NAtoms=   30 NActive=   30 NUniq=   30 SFac= 1.00D+00 NAtFMM=   60 NAOKFM=F Big=F
 Integral buffers will be    131072 words long.
 Raffenetti 1 integral format.
 Two-electron integral symmetry is turned on.
 Leave Link  301 at Wed May 11 06:43:45 2022, MaxMem=  6442450944 cpu:               0.5 elap:               0.0
 (Enter /mnt/gpfs3_amd/share/apps/amd/gaussian/g16-A.03/g16/l302.exe)
 NPDir=0 NMtPBC=     1 NCelOv=     1 NCel=       1 NClECP=     1 NCelD=      1
         NCelK=      1 NCelE2=     1 NClLst=     1 CellRange=     0.0.
 One-electron integrals computed using PRISM.
 One-electron integral symmetry used in STVInt
   1 Symmetry operations used in ECPInt.
 ECPInt:  NShTT=   10011 NPrTT=   36575 LenC2=    9396 LenP2D=   24551.
 LDataN:  DoStor=T MaxTD1= 4 Len=   56
 NBasis=   303 RedAO= T EigKep=  3.13D-04  NBF=   303
 NBsUse=   303 1.00D-06 EigRej= -1.00D+00 NBFU=   303
 Precomputing XC quadrature grid using
 IXCGrd= 4 IRadAn=           5 IRanWt=          -1 IRanGd=           0 AccXCQ= 0.00D+00.
 Generated NRdTot=       0 NPtTot=           0 NUsed=           0 NTot=          32
 NSgBfM=   319   319   319   319   319 MxSgAt=    30 MxSgA2=    30.
 Leave Link  302 at Wed May 11 06:43:45 2022, MaxMem=  6442450944 cpu:               7.4 elap:               0.5
 (Enter /mnt/gpfs3_amd/share/apps/amd/gaussian/g16-A.03/g16/l303.exe)
 DipDrv:  MaxL=1.
 Leave Link  303 at Wed May 11 06:43:46 2022, MaxMem=  6442450944 cpu:               0.4 elap:               0.0
 (Enter /mnt/gpfs3_amd/share/apps/amd/gaussian/g16-A.03/g16/l308.exe)
 Leave Link  308 at Wed May 11 06:43:46 2022, MaxMem=  6442450944 cpu:               0.6 elap:               0.1
 (Enter /mnt/gpfs3_amd/share/apps/amd/gaussian/g16-A.03/g16/l401.exe)
 ExpMin= 1.22D-01 ExpMax= 1.71D+03 ExpMxC= 2.58D+02 IAcc=3 IRadAn=         5 AccDes= 0.00D+00
 Harris functional with IExCor=33909 and IRadAn=       5 diagonalized for initial guess.
 HarFok:  IExCor=33909 AccDes= 0.00D+00 IRadAn=         5 IDoV= 1 UseB2=F ITyADJ=14
 ICtDFT=  3500011 ScaDFX=  1.000000  1.000000  1.000000  1.000000
 FoFCou: FMM=F IPFlag=           0 FMFlag=      100000 FMFlg1=           0
         NFxFlg=           0 DoJE=T BraDBF=F KetDBF=T FulRan=T
         wScrn=  0.000000 ICntrl=       500 IOpCl=  0 I1Cent=   200000004 NGrid=           0
         NMat0=    1 NMatS0=      1 NMatT0=    0 NMatD0=    1 NMtDS0=    0 NMtDT0=    0
 Petite list used in FoFCou.
 Harris En= -673.348331947281    
 JPrj=0 DoOrth=F DoCkMO=F.
 Leave Link  401 at Wed May 11 06:43:48 2022, MaxMem=  6442450944 cpu:              44.7 elap:               2.9
 (Enter /mnt/gpfs3_amd/share/apps/amd/gaussian/g16-A.03/g16/l502.exe)
 Integral symmetry usage will be decided dynamically.
 Closed shell SCF:
 Using DIIS extrapolation, IDIIS=  1040.
 NGot=  6442450944 LenX=  6442237618 LenY=  6442134777
 Requested convergence on RMS density matrix=1.00D-08 within 128 cycles.
 Requested convergence on MAX density matrix=1.00D-06.
 Requested convergence on             energy=1.00D-06.
 No special actions if energy rises.
 Fock matrices will be formed incrementally for  20 cycles.
 Integral accuracy reduced to 1.0D-05 until final iterations.

 Cycle   1  Pass 0  IDiag  1:
 FoFJK:  IHMeth= 1 ICntrl=       0 DoSepK=T KAlg= 0 I1Cent=           0 FoldK=F
 IRaf=         1 NMat=       1 IRICut=       1 DoRegI=T DoRafI=F ISym2E= 0 IDoP0=0 IntGTp=1.
 FoFCou: FMM=F IPFlag=           0 FMFlag=      100000 FMFlg1=           0
         NFxFlg=           0 DoJE=T BraDBF=F KetDBF=F FulRan=T
         wScrn=  0.000000 ICntrl=       500 IOpCl=  0 I1Cent=           0 NGrid=           0
         NMat0=    1 NMatS0=      1 NMatT0=    0 NMatD0=    1 NMtDS0=    0 NMtDT0=    0
 Symmetry not used in FoFCou.
 E= -686.254211368923    
 DIIS: error= 2.94D-02 at cycle   1 NSaved=   1.
 NSaved= 1 IEnMin= 1 EnMin= -686.254211368923     IErMin= 1 ErrMin= 2.94D-02
 ErrMax= 2.94D-02  0.00D+00 EMaxC= 1.00D-01 BMatC= 2.53D-01 BMatP= 2.53D-01
 IDIUse=3 WtCom= 7.06D-01 WtEn= 2.94D-01
 Coeff-Com:  0.100D+01
 Coeff-En:   0.100D+01
 Coeff:      0.100D+01
 Gap=     0.111 Goal=   None    Shift=    0.000
 GapD=    0.111 DampG=1.000 DampE=0.500 DampFc=0.5000 IDamp=-1.
 Damping current iteration by 5.00D-01
 RMSDP=5.60D-03 MaxDP=2.64D-01              OVMax= 4.78D-01

 Cycle   2  Pass 0  IDiag  1:
 RMSU=  2.78D-03    CP:  9.83D-01
 E= -686.284208523470     Delta-E=       -0.029997154547 Rises=F Damp=T
 DIIS: error= 1.20D-02 at cycle   2 NSaved=   2.
 NSaved= 2 IEnMin= 2 EnMin= -686.284208523470     IErMin= 2 ErrMin= 1.20D-02
 ErrMax= 1.20D-02  0.00D+00 EMaxC= 1.00D-01 BMatC= 6.84D-02 BMatP= 2.53D-01
 IDIUse=3 WtCom= 8.80D-01 WtEn= 1.20D-01
 Coeff-Com:  0.312D+00 0.688D+00
 Coeff-En:   0.456D+00 0.544D+00
 Coeff:      0.329D+00 0.671D+00
 Gap=     0.165 Goal=   None    Shift=    0.000
 RMSDP=1.57D-03 MaxDP=5.26D-02 DE=-3.00D-02 OVMax= 2.98D-01

 Cycle   3  Pass 0  IDiag  1:
 RMSU=  1.52D-03    CP:  9.66D-01  9.18D-01
 E= -686.546294464991     Delta-E=       -0.262085941521 Rises=F Damp=F
 DIIS: error= 3.29D-03 at cycle   3 NSaved=   3.
 NSaved= 3 IEnMin= 3 EnMin= -686.546294464991     IErMin= 3 ErrMin= 3.29D-03
 ErrMax= 3.29D-03  0.00D+00 EMaxC= 1.00D-01 BMatC= 5.99D-03 BMatP= 6.84D-02
 IDIUse=3 WtCom= 9.67D-01 WtEn= 3.29D-02
 Coeff-Com:  0.932D-01 0.204D+00 0.703D+00
 Coeff-En:   0.000D+00 0.000D+00 0.100D+01
 Coeff:      0.901D-01 0.197D+00 0.713D+00
 Gap=     0.176 Goal=   None    Shift=    0.000
 RMSDP=4.61D-04 MaxDP=1.56D-02 DE=-2.62D-01 OVMax= 3.31D-02

 Cycle   4  Pass 0  IDiag  1:
 RMSU=  4.56D-04    CP:  9.67D-01  9.04D-01  9.63D-01
 E= -686.551487588813     Delta-E=       -0.005193123822 Rises=F Damp=F
 DIIS: error= 2.90D-03 at cycle   4 NSaved=   4.
 NSaved= 4 IEnMin= 4 EnMin= -686.551487588813     IErMin= 4 ErrMin= 2.90D-03
 ErrMax= 2.90D-03  0.00D+00 EMaxC= 1.00D-01 BMatC= 1.92D-03 BMatP= 5.99D-03
 IDIUse=3 WtCom= 9.71D-01 WtEn= 2.90D-02
 Coeff-Com:  0.132D-01 0.204D-02 0.345D+00 0.640D+00
 Coeff-En:   0.000D+00 0.000D+00 0.146D+00 0.854D+00
 Coeff:      0.128D-01 0.198D-02 0.339D+00 0.646D+00
 Gap=     0.180 Goal=   None    Shift=    0.000
 RMSDP=2.03D-04 MaxDP=6.20D-03 DE=-5.19D-03 OVMax= 1.77D-02

 Cycle   5  Pass 0  IDiag  1:
 RMSU=  1.51D-04    CP:  9.66D-01  8.83D-01  1.02D+00  8.09D-01
 E= -686.553836339082     Delta-E=       -0.002348750269 Rises=F Damp=F
 DIIS: error= 6.03D-04 at cycle   5 NSaved=   5.
 NSaved= 5 IEnMin= 5 EnMin= -686.553836339082     IErMin= 5 ErrMin= 6.03D-04
 ErrMax= 6.03D-04  0.00D+00 EMaxC= 1.00D-01 BMatC= 1.98D-04 BMatP= 1.92D-03
 IDIUse=3 WtCom= 9.94D-01 WtEn= 6.03D-03
 Coeff-Com: -0.233D-02-0.273D-01 0.516D-01 0.273D+00 0.705D+00
 Coeff-En:   0.000D+00 0.000D+00 0.000D+00 0.000D+00 0.100D+01
 Coeff:     -0.231D-02-0.272D-01 0.512D-01 0.272D+00 0.707D+00
 Gap=     0.181 Goal=   None    Shift=    0.000
 RMSDP=7.41D-05 MaxDP=2.63D-03 DE=-2.35D-03 OVMax= 6.92D-03

 Cycle   6  Pass 0  IDiag  1:
 RMSU=  5.48D-05    CP:  9.65D-01  8.81D-01  1.03D+00  9.09D-01  1.05D+00
 E= -686.554129677488     Delta-E=       -0.000293338405 Rises=F Damp=F
 DIIS: error= 3.00D-04 at cycle   6 NSaved=   6.
 NSaved= 6 IEnMin= 6 EnMin= -686.554129677488     IErMin= 6 ErrMin= 3.00D-04
 ErrMax= 3.00D-04  0.00D+00 EMaxC= 1.00D-01 BMatC= 2.53D-05 BMatP= 1.98D-04
 IDIUse=3 WtCom= 9.97D-01 WtEn= 3.00D-03
 Coeff-Com: -0.177D-02-0.136D-01-0.367D-01 0.152D-01 0.263D+00 0.774D+00
 Coeff-En:   0.000D+00 0.000D+00 0.000D+00 0.000D+00 0.000D+00 0.100D+01
 Coeff:     -0.176D-02-0.136D-01-0.366D-01 0.151D-01 0.262D+00 0.775D+00
 Gap=     0.182 Goal=   None    Shift=    0.000
 RMSDP=3.88D-05 MaxDP=9.71D-04 DE=-2.93D-04 OVMax= 5.37D-03

 Cycle   7  Pass 0  IDiag  1:
 RMSU=  2.58D-05    CP:  9.65D-01  8.78D-01  1.03D+00  9.41D-01  1.19D+00
                    CP:  1.10D+00
 E= -686.554200541766     Delta-E=       -0.000070864279 Rises=F Damp=F
 DIIS: error= 1.54D-04 at cycle   7 NSaved=   7.
 NSaved= 7 IEnMin= 7 EnMin= -686.554200541766     IErMin= 7 ErrMin= 1.54D-04
 ErrMax= 1.54D-04  0.00D+00 EMaxC= 1.00D-01 BMatC= 5.54D-06 BMatP= 2.53D-05
 IDIUse=3 WtCom= 9.98D-01 WtEn= 1.54D-03
 Coeff-Com:  0.436D-03-0.155D-02-0.209D-01-0.315D-01-0.478D-01 0.268D+00
 Coeff-Com:  0.833D+00
 Coeff-En:   0.000D+00 0.000D+00 0.000D+00 0.000D+00 0.000D+00 0.000D+00
 Coeff-En:   0.100D+01
 Coeff:      0.435D-03-0.155D-02-0.209D-01-0.315D-01-0.477D-01 0.268D+00
 Coeff:      0.833D+00
 Gap=     0.182 Goal=   None    Shift=    0.000
 RMSDP=2.25D-05 MaxDP=3.63D-04 DE=-7.09D-05 OVMax= 4.00D-03

 Cycle   8  Pass 0  IDiag  1:
 RMSU=  1.24D-05    CP:  9.65D-01  8.76D-01  1.03D+00  9.62D-01  1.25D+00
                    CP:  1.32D+00  1.23D+00
 E= -686.554220825044     Delta-E=       -0.000020283278 Rises=F Damp=F
 DIIS: error= 1.07D-04 at cycle   8 NSaved=   8.
 NSaved= 8 IEnMin= 8 EnMin= -686.554220825044     IErMin= 8 ErrMin= 1.07D-04
 ErrMax= 1.07D-04  0.00D+00 EMaxC= 1.00D-01 BMatC= 1.59D-06 BMatP= 5.54D-06
 IDIUse=3 WtCom= 9.99D-01 WtEn= 1.07D-03
 Coeff-Com:  0.744D-03 0.164D-02-0.370D-02-0.144D-01-0.832D-01-0.167D-01
 Coeff-Com:  0.390D+00 0.726D+00
 Coeff-En:   0.000D+00 0.000D+00 0.000D+00 0.000D+00 0.000D+00 0.000D+00
 Coeff-En:   0.000D+00 0.100D+01
 Coeff:      0.743D-03 0.163D-02-0.369D-02-0.144D-01-0.831D-01-0.167D-01
 Coeff:      0.390D+00 0.726D+00
 Gap=     0.182 Goal=   None    Shift=    0.000
 RMSDP=1.21D-05 MaxDP=2.29D-04 DE=-2.03D-05 OVMax= 2.70D-03

 Cycle   9  Pass 0  IDiag  1:
 RMSU=  6.25D-06    CP:  9.65D-01  8.76D-01  1.03D+00  9.69D-01  1.28D+00
                    CP:  1.41D+00  1.51D+00  1.17D+00
 E= -686.554227201342     Delta-E=       -0.000006376298 Rises=F Damp=F
 DIIS: error= 8.42D-05 at cycle   9 NSaved=   9.
 NSaved= 9 IEnMin= 9 EnMin= -686.554227201342     IErMin= 9 ErrMin= 8.42D-05
 ErrMax= 8.42D-05  0.00D+00 EMaxC= 1.00D-01 BMatC= 4.06D-07 BMatP= 1.59D-06
 IDIUse=1 WtCom= 1.00D+00 WtEn= 0.00D+00
 Coeff-Com:  0.288D-03 0.864D-03 0.253D-02 0.421D-02-0.272D-01-0.499D-01
 Coeff-Com: -0.283D-01 0.249D+00 0.848D+00
 Coeff:      0.288D-03 0.864D-03 0.253D-02 0.421D-02-0.272D-01-0.499D-01
 Coeff:     -0.283D-01 0.249D+00 0.848D+00
 Gap=     0.182 Goal=   None    Shift=    0.000
 RMSDP=7.95D-06 MaxDP=1.37D-04 DE=-6.38D-06 OVMax= 2.12D-03

 Initial convergence to 1.0D-05 achieved.  Increase integral accuracy.
 Cycle  10  Pass 1  IDiag  1:
 E= -686.554243419207     Delta-E=       -0.000016217864 Rises=F Damp=F
 DIIS: error= 9.35D-05 at cycle   1 NSaved=   1.
 NSaved= 1 IEnMin= 1 EnMin= -686.554243419207     IErMin= 1 ErrMin= 9.35D-05
 ErrMax= 9.35D-05  0.00D+00 EMaxC= 1.00D-01 BMatC= 1.45D-06 BMatP= 1.45D-06
 IDIUse=1 WtCom= 1.00D+00 WtEn= 0.00D+00
 Coeff-Com:  0.100D+01
 Coeff:      0.100D+01
 Gap=     0.182 Goal=   None    Shift=    0.000
 RMSDP=7.95D-06 MaxDP=1.37D-04 DE=-1.62D-05 OVMax= 1.24D-03

 Cycle  11  Pass 1  IDiag  1:
 RMSU=  6.88D-05    CP:  1.00D+00
 E= -686.554245749261     Delta-E=       -0.000002330054 Rises=F Damp=F
 DIIS: error= 5.23D-05 at cycle   2 NSaved=   2.
 NSaved= 2 IEnMin= 2 EnMin= -686.554245749261     IErMin= 2 ErrMin= 5.23D-05
 ErrMax= 5.23D-05  0.00D+00 EMaxC= 1.00D-01 BMatC= 1.97D-07 BMatP= 1.45D-06
 IDIUse=1 WtCom= 1.00D+00 WtEn= 0.00D+00
 Coeff-Com:  0.121D+00 0.879D+00
 Coeff:      0.121D+00 0.879D+00
 Gap=     0.182 Goal=   None    Shift=    0.000
 RMSDP=5.64D-06 MaxDP=1.39D-04 DE=-2.33D-06 OVMax= 9.36D-04

 Cycle  12  Pass 1  IDiag  1:
 RMSU=  4.06D-06    CP:  1.00D+00  1.06D+00
 E= -686.554246298435     Delta-E=       -0.000000549174 Rises=F Damp=F
 DIIS: error= 2.71D-05 at cycle   3 NSaved=   3.
 NSaved= 3 IEnMin= 3 EnMin= -686.554246298435     IErMin= 3 ErrMin= 2.71D-05
 ErrMax= 2.71D-05  0.00D+00 EMaxC= 1.00D-01 BMatC= 2.92D-07 BMatP= 1.97D-07
 IDIUse=1 WtCom= 1.00D+00 WtEn= 0.00D+00
 Coeff-Com: -0.457D-01 0.572D+00 0.474D+00
 Coeff:     -0.457D-01 0.572D+00 0.474D+00
 Gap=     0.182 Goal=   None    Shift=    0.000
 RMSDP=2.52D-06 MaxDP=7.43D-05 DE=-5.49D-07 OVMax= 4.06D-04

 Cycle  13  Pass 1  IDiag  1:
 RMSU=  2.27D-06    CP:  1.00D+00  1.07D+00  9.48D-01
 E= -686.554246795541     Delta-E=       -0.000000497106 Rises=F Damp=F
 DIIS: error= 2.88D-05 at cycle   4 NSaved=   4.
 NSaved= 4 IEnMin= 4 EnMin= -686.554246795541     IErMin= 3 ErrMin= 2.71D-05
 ErrMax= 2.88D-05  0.00D+00 EMaxC= 1.00D-01 BMatC= 2.28D-08 BMatP= 1.97D-07
 IDIUse=1 WtCom= 1.00D+00 WtEn= 0.00D+00
 Coeff-Com:  0.620D-02-0.410D+00-0.449D+00 0.185D+01
 Coeff:      0.620D-02-0.410D+00-0.449D+00 0.185D+01
 Gap=     0.182 Goal=   None    Shift=    0.000
 RMSDP=4.00D-06 MaxDP=8.03D-05 DE=-4.97D-07 OVMax= 1.12D-03

 Cycle  14  Pass 1  IDiag  1:
 RMSU=  1.12D-06    CP:  1.00D+00  1.08D+00  1.53D+00  2.33D+00
 E= -686.554247229946     Delta-E=       -0.000000434405 Rises=F Damp=F
 DIIS: error= 1.44D-05 at cycle   5 NSaved=   5.
 NSaved= 5 IEnMin= 5 EnMin= -686.554247229946     IErMin= 5 ErrMin= 1.44D-05
 ErrMax= 1.44D-05  0.00D+00 EMaxC= 1.00D-01 BMatC= 1.53D-08 BMatP= 2.28D-08
 IDIUse=1 WtCom= 1.00D+00 WtEn= 0.00D+00
 Coeff-Com:  0.321D-01-0.638D+00-0.667D+00 0.143D+01 0.846D+00
 Coeff:      0.321D-01-0.638D+00-0.667D+00 0.143D+01 0.846D+00
 Gap=     0.182 Goal=   None    Shift=    0.000
 RMSDP=3.28D-06 MaxDP=6.84D-05 DE=-4.34D-07 OVMax= 9.34D-04

 Cycle  15  Pass 1  IDiag  1:
 RMSU=  1.26D-06    CP:  1.00D+00  1.08D+00  1.97D+00  3.00D+00  1.42D+00
 E= -686.554247381876     Delta-E=       -0.000000151930 Rises=F Damp=F
 DIIS: error= 1.99D-06 at cycle   6 NSaved=   6.
 NSaved= 6 IEnMin= 6 EnMin= -686.554247381876     IErMin= 6 ErrMin= 1.99D-06
 ErrMax= 1.99D-06  0.00D+00 EMaxC= 1.00D-01 BMatC= 1.32D-09 BMatP= 1.53D-08
 IDIUse=1 WtCom= 1.00D+00 WtEn= 0.00D+00
 Coeff-Com:  0.150D-01-0.268D+00-0.283D+00 0.486D+00 0.409D+00 0.642D+00
 Coeff:      0.150D-01-0.268D+00-0.283D+00 0.486D+00 0.409D+00 0.642D+00
 Gap=     0.182 Goal=   None    Shift=    0.000
 RMSDP=6.07D-07 MaxDP=1.20D-05 DE=-1.52D-07 OVMax= 1.58D-04

 Cycle  16  Pass 1  IDiag  1:
 RMSU=  2.37D-07    CP:  1.00D+00  1.08D+00  2.05D+00  3.00D+00  1.61D+00
                    CP:  1.31D+00
 E= -686.554247386839     Delta-E=       -0.000000004963 Rises=F Damp=F
 DIIS: error= 5.10D-07 at cycle   7 NSaved=   7.
 NSaved= 7 IEnMin= 7 EnMin= -686.554247386839     IErMin= 7 ErrMin= 5.10D-07
 ErrMax= 5.10D-07  0.00D+00 EMaxC= 1.00D-01 BMatC= 1.01D-10 BMatP= 1.32D-09
 IDIUse=1 WtCom= 1.00D+00 WtEn= 0.00D+00
 Coeff-Com: -0.530D-04 0.129D-01 0.954D-02-0.590D-01 0.102D-01 0.232D+00
 Coeff-Com:  0.795D+00
 Coeff:     -0.530D-04 0.129D-01 0.954D-02-0.590D-01 0.102D-01 0.232D+00
 Coeff:      0.795D+00
 Gap=     0.182 Goal=   None    Shift=    0.000
 RMSDP=1.08D-07 MaxDP=2.56D-06 DE=-4.96D-09 OVMax= 1.60D-05

 Cycle  17  Pass 1  IDiag  1:
 RMSU=  4.96D-08    CP:  1.00D+00  1.08D+00  2.06D+00  3.00D+00  1.65D+00
                    CP:  1.36D+00  9.24D-01
 E= -686.554247387022     Delta-E=       -0.000000000183 Rises=F Damp=F
 DIIS: error= 2.27D-07 at cycle   8 NSaved=   8.
 NSaved= 8 IEnMin= 8 EnMin= -686.554247387022     IErMin= 8 ErrMin= 2.27D-07
 ErrMax= 2.27D-07  0.00D+00 EMaxC= 1.00D-01 BMatC= 1.60D-11 BMatP= 1.01D-10
 IDIUse=1 WtCom= 1.00D+00 WtEn= 0.00D+00
 Coeff-Com: -0.126D-02 0.275D-01 0.273D-01-0.664D-01-0.297D-01 0.328D-01
 Coeff-Com:  0.333D+00 0.677D+00
 Coeff:     -0.126D-02 0.275D-01 0.273D-01-0.664D-01-0.297D-01 0.328D-01
 Coeff:      0.333D+00 0.677D+00
 Gap=     0.182 Goal=   None    Shift=    0.000
 RMSDP=3.73D-08 MaxDP=8.04D-07 DE=-1.83D-10 OVMax= 6.55D-06

 Cycle  18  Pass 1  IDiag  1:
 RMSU=  1.98D-08    CP:  1.00D+00  1.08D+00  2.06D+00  3.00D+00  1.66D+00
                    CP:  1.37D+00  9.61D-01  1.15D+00
 E= -686.554247387094     Delta-E=       -0.000000000071 Rises=F Damp=F
 DIIS: error= 1.50D-07 at cycle   9 NSaved=   9.
 NSaved= 9 IEnMin= 9 EnMin= -686.554247387094     IErMin= 9 ErrMin= 1.50D-07
 ErrMax= 1.50D-07  0.00D+00 EMaxC= 1.00D-01 BMatC= 1.65D-12 BMatP= 1.60D-11
 IDIUse=1 WtCom= 1.00D+00 WtEn= 0.00D+00
 Coeff-Com:  0.908D-04-0.409D-02-0.350D-02 0.154D-01 0.163D-02-0.505D-01
 Coeff-Com: -0.148D+00-0.266D-01 0.122D+01
 Coeff:      0.908D-04-0.409D-02-0.350D-02 0.154D-01 0.163D-02-0.505D-01
 Coeff:     -0.148D+00-0.266D-01 0.122D+01
 Gap=     0.182 Goal=   None    Shift=    0.000
 RMSDP=2.02D-08 MaxDP=4.22D-07 DE=-7.14D-11 OVMax= 4.41D-06

 Cycle  19  Pass 1  IDiag  1:
 RMSU=  1.13D-08    CP:  1.00D+00  1.08D+00  2.06D+00  3.00D+00  1.67D+00
                    CP:  1.37D+00  9.69D-01  1.42D+00  1.48D+00
 E= -686.554247387063     Delta-E=        0.000000000031 Rises=F Damp=F
 DIIS: error= 7.55D-08 at cycle  10 NSaved=  10.
 NSaved=10 IEnMin= 9 EnMin= -686.554247387094     IErMin=10 ErrMin= 7.55D-08
 ErrMax= 7.55D-08  0.00D+00 EMaxC= 1.00D-01 BMatC= 5.94D-13 BMatP= 1.65D-12
 IDIUse=1 WtCom= 1.00D+00 WtEn= 0.00D+00
 Coeff-Com:  0.226D-03-0.594D-02-0.546D-02 0.163D-01 0.534D-02-0.295D-01
 Coeff-Com: -0.119D+00-0.133D+00 0.504D+00 0.766D+00
 Coeff:      0.226D-03-0.594D-02-0.546D-02 0.163D-01 0.534D-02-0.295D-01
 Coeff:     -0.119D+00-0.133D+00 0.504D+00 0.766D+00
 Gap=     0.182 Goal=   None    Shift=    0.000
 RMSDP=9.67D-09 MaxDP=2.07D-07 DE= 3.09D-11 OVMax= 2.15D-06

 SCF Done:  E(RLC-wHPBE) =  -686.554247387     A.U. after   19 cycles
            NFock= 19  Conv=0.97D-08     -V/T= 2.0113
 KE= 6.788629132717D+02 PE=-3.703923194288D+03 EE= 1.256009296389D+03
 Leave Link  502 at Wed May 11 06:45:20 2022, MaxMem=  6442450944 cpu:            1436.0 elap:              91.4
 (Enter /mnt/gpfs3_amd/share/apps/amd/gaussian/g16-A.03/g16/l801.exe)
 DoSCS=F DFT=T ScalE2(SS,OS)=  1.000000  1.000000
 ExpMin= 1.22D-01 ExpMax= 1.71D+03 ExpMxC= 2.58D+02 IAcc=3 IRadAn=         5 AccDes= 0.00D+00
 HarFok:  IExCor=  205 AccDes= 0.00D+00 IRadAn=         5 IDoV=-2 UseB2=F ITyADJ=14
 ICtDFT= 12500011 ScaDFX=  1.000000  1.000000  1.000000  1.000000
 Largest valence mixing into a core orbital is  7.00D-05
 Largest core mixing into a valence orbital is  3.03D-05
 Range of M.O.s used for correlation:    18   303
 NBasis=   303 NAE=    57 NBE=    57 NFC=    17 NFV=     0
 NROrb=    286 NOA=    40 NOB=    40 NVA=   246 NVB=   246

 **** Warning!!: The largest alpha MO coefficient is  0.12268030D+02

 Leave Link  801 at Wed May 11 06:45:20 2022, MaxMem=  6442450944 cpu:               4.8 elap:               0.4
 (Enter /mnt/gpfs3_amd/share/apps/amd/gaussian/g16-A.03/g16/l914.exe)
 RHF ground state
 Two-electron integrals replicated using symmetry.
 MDV=  6442450944 DFT=T DoStab=F Mixed=T DoRPA=T DoScal=F NonHer=T
 Making orbital integer symmetry assigments:
 Orbital symmetries:
       Occupied  (A) (A) (A) (A) (A) (A) (A) (A) (A) (A) (A) (A)
                 (A) (A) (A) (A) (A) (A) (A) (A) (A) (A) (A) (A)
                 (A) (A) (A) (A) (A) (A) (A) (A) (A) (A) (A) (A)
                 (A) (A) (A) (A) (A) (A) (A) (A) (A) (A) (A) (A)
                 (A) (A) (A) (A) (A) (A) (A) (A) (A)
       Virtual   (A) (A) (A) (A) (A) (A) (A) (A) (A) (A) (A) (A)
                 (A) (A) (A) (A) (A) (A) (A) (A) (A) (A) (A) (A)
                 (A) (A) (A) (A) (A) (A) (A) (A) (A) (A) (A) (A)
                 (A) (A) (A) (A) (A) (A) (A) (A) (A) (A) (A) (A)
                 (A) (A) (A) (A) (A) (A) (A) (A) (A) (A) (A) (A)
                 (A) (A) (A) (A) (A) (A) (A) (A) (A) (A) (A) (A)
                 (A) (A) (A) (A) (A) (A) (A) (A) (A) (A) (A) (A)
                 (A) (A) (A) (A) (A) (A) (A) (A) (A) (A) (A) (A)
                 (A) (A) (A) (A) (A) (A) (A) (A) (A) (A) (A) (A)
                 (A) (A) (A) (A) (A) (A) (A) (A) (A) (A) (A) (A)
                 (A) (A) (A) (A) (A) (A) (A) (A) (A) (A) (A) (A)
                 (A) (A) (A) (A) (A) (A) (A) (A) (A) (A) (A) (A)
                 (A) (A) (A) (A) (A) (A) (A) (A) (A) (A) (A) (A)
                 (A) (A) (A) (A) (A) (A) (A) (A) (A) (A) (A) (A)
                 (A) (A) (A) (A) (A) (A) (A) (A) (A) (A) (A) (A)
                 (A) (A) (A) (A) (A) (A) (A) (A) (A) (A) (A) (A)
                 (A) (A) (A) (A) (A) (A) (A) (A) (A) (A) (A) (A)
                 (A) (A) (A) (A) (A) (A) (A) (A) (A) (A) (A) (A)
                 (A) (A) (A) (A) (A) (A) (A) (A) (A) (A) (A) (A)
                 (A) (A) (A) (A) (A) (A) (A) (A) (A) (A) (A) (A)
                 (A) (A) (A) (A) (A) (A)
   120 initial guesses have been made.
 Convergence on wavefunction:    0.001000000000000
 Davidson Disk Diagonalization:  ConvIn= 1.00D-03 SkipCon=T Conv= 1.00D-03.
 Max sub-space:  2000 roots to seek:   120 dimension of matrix:        19680
 Iteration     1 Dimension   120 NMult     0 NNew    120
 CISAX will form   120 AO SS matrices at one time.
 NMat=   120 NSing=    60 JSym2X= 0.
 FoFJK:  IHMeth= 1 ICntrl=       0 DoSepK=T KAlg= 0 I1Cent=           0 FoldK=F
 IRaf=         1 NMat=     240 IRICut=       1 DoRegI=T DoRafI=F ISym2E= 0 IDoP0=3 IntGTp=3.
 FoFCou: FMM=F IPFlag=           0 FMFlag=      100000 FMFlg1=           0
         NFxFlg=           0 DoJE=F BraDBF=F KetDBF=F FulRan=T
         wScrn=  0.000000 ICntrl=       500 IOpCl=  0 I1Cent=           0 NGrid=           0
         NMat0=   60 NMatS0=     60 NMatT0=    0 NMatD0=   60 NMtDS0=    0 NMtDT0=    0
 Symmetry not used in FoFCou.
 New state      1 was old state      2
 New state      2 was old state      4
 New state      3 was old state      6
 New state      4 was old state      3
 New state      6 was old state      8
 New state      7 was old state      1
 New state      8 was old state     10
 New state      9 was old state     11
 New state     10 was old state     12
 New state     11 was old state      9
 New state     12 was old state     18
 New state     13 was old state     14
 New state     14 was old state     13
 New state     15 was old state     16
 New state     16 was old state     24
 New state     17 was old state      7
 New state     18 was old state     15
 New state     19 was old state     17
 New state     20 was old state     42
 New state     21 was old state     28
 New state     22 was old state     32
 New state     23 was old state     30
 New state     24 was old state     52
 New state     25 was old state     70
 New state     26 was old state     19
 New state     27 was old state     22
 New state     28 was old state     23
 New state     29 was old state     20
 New state     30 was old state     34
 New state     31 was old state     29
 New state     32 was old state     21
 New state     33 was old state     56
 New state     34 was old state     38
 New state     35 was old state     25
 New state     36 was old state     33
 New state     37 was old state     40
 New state     38 was old state     39
 New state     39 was old state     44
 New state     40 was old state     48
 New state     41 was old state     37
 New state     42 was old state     31
 New state     44 was old state     26
 New state     45 was old state     60
 New state     46 was old state     41
 New state     47 was old state     36
 New state     48 was old state     35
 New state     49 was old state     54
 New state     50 was old state     27
 New state     51 was old state     72
 New state     52 was old state     53
 New state     53 was old state     62
 New state     54 was old state     61
 New state     55 was old state     64
 New state     56 was old state     94
 New state     57 was old state     76
 New state     58 was old state     55
 New state     59 was old state     45
 New state     60 was old state     84
 Excitation Energies [eV] at current iteration:
 Root      1 :    -0.820537543673289
 Root      2 :     0.820093872398549
 Root      3 :     1.268605431046369
 Root      4 :     1.517819369663264
 Root      5 :     1.902615793872466
 Root      6 :     2.497457562883810
 Root      7 :     2.924958437560224
 Root      8 :     3.220414365008712
 Root      9 :     3.308872334580304
 Root     10 :     3.339816702068974
 Root     11 :     3.469937060147286
 Root     12 :     3.523532288617286
 Root     13 :     3.677815076130175
 Root     14 :     3.774104368549267
 Root     15 :     3.788177199594671
 Root     16 :     3.918160147821364
 Root     17 :     3.934356881999127
 Root     18 :     3.977053698969190
 Root     19 :     4.487780355781688
 Root     20 :     4.507217789863476
 Root     21 :     4.554620202723981
 Root     22 :     4.574972105986828
 Root     23 :     4.711269392648096
 Root     24 :     4.790136199072745
 Root     25 :     5.063855114173528
 Root     26 :     5.105469311017441
 Root     27 :     5.202678085448469
 Root     28 :     5.253429800438560
 Root     29 :     5.259337596492935
 Root     30 :     5.453679022681471
 Root     31 :     5.497483774960705
 Root     32 :     5.566054395298775
 Root     33 :     5.584872665969195
 Root     34 :     5.600212832012932
 Root     35 :     5.644849149698941
 Root     36 :     5.673422880769673
 Root     37 :     5.686708278759592
 Root     38 :     5.727166293199915
 Root     39 :     5.737283764836300
 Root     40 :     5.843831419260542
 Root     41 :     5.857236418268436
 Root     42 :     5.989258824420445
 Root     43 :     6.001030281613128
 Root     44 :     6.078819661081914
 Root     45 :     6.083966668532153
 Root     46 :     6.137917693186645
 Root     47 :     6.210884966120593
 Root     48 :     6.217840749565656
 Root     49 :     6.299058966879821
 Root     50 :     6.372250269218669
 Root     51 :     6.481750677563574
 Root     52 :     6.485034727289857
 Root     53 :     6.573453901820532
 Root     54 :     6.762247880858097
 Root     55 :     6.770308855409207
 Root     56 :     6.861221823756969
 Root     57 :     7.004910163248534
 Root     58 :     7.052705109847158
 Root     59 :     7.058027150553847
 Root     60 :     7.071257325473227
 Root     61 :     7.090174952386954
 Root     62 :     7.141272873393540
 Root     63 :     7.147568300115067
 Root     64 :     7.168348189034282
 Root     65 :     7.219845823850290
 Root     66 :     7.278086021860193
 Root     67 :     7.308134644380274
 Root     68 :     7.318991462794568
 Root     69 :     7.386872631086309
 Root     70 :     7.394825556706358
 Root     71 :     7.451682710543984
 Root     72 :     7.501648739572694
 Root     73 :     7.597692881145117
 Root     74 :     7.641209630102495
 Root     75 :     7.656593404160589
 Root     76 :     7.665757994055705
 Root     77 :     7.708496821602564
 Root     78 :     7.713164011902264
 Root     79 :     7.729126585173064
 Root     80 :     7.796779871085836
 Root     81 :     7.808347189838255
 Root     82 :     7.818842909071328
 Root     83 :     7.829094610284944
 Root     84 :     7.850553484891377
 Root     85 :     7.855525199089387
 Root     86 :     7.944792173191527
 Root     87 :     7.945867318055466
 Root     88 :     8.016591781456212
 Root     89 :     8.027176371540262
 Root     90 :     8.050809327638529
 Root     91 :     8.133815367615561
 Root     92 :     8.138511316825570
 Root     93 :     8.145086988434455
 Root     94 :     8.271720934501509
 Root     95 :     8.360788219121089
 Root     96 :     8.379503945420526
 Root     97 :     8.389168897656884
 Root     98 :     8.430923057788657
 Root     99 :     8.536914819447839
 Root    100 :     8.587140119325054
 Root    101 :     8.636086791717046
 Root    102 :     8.652264974165925
 Root    103 :     8.674368987083989
 Root    104 :     8.766320120040300
 Root    105 :     8.766887501724812
 Root    106 :     8.812286491758062
 Root    107 :     8.875210497264604
 Root    108 :     8.884750705340190
 Root    109 :     8.973778736648644
 Root    110 :     9.039264377968058
 Root    111 :     9.067155809274364
 Root    112 :     9.089382503334217
 Root    113 :     9.144240890797516
 Root    114 :     9.159691103059341
 Root    115 :     9.260805507453203
 Root    116 :     9.292939966727166
 Root    117 :     9.390429254111451
 Root    118 :     9.404453874988336
 Root    119 :     9.419288783271778
 Root    120 :     9.774659449060321
 Vector  25 SDiff=6.06D-01 TDiff=7.39D+00 assumed to be singlet.
 Vector  27 SDiff=2.60D+00 TDiff=4.48D+00 assumed to be singlet.
 Vector  29 SDiff=5.45D-01 TDiff=2.80D+00 assumed to be singlet.
 Vector  30 SDiff=1.37D+00 TDiff=9.53D-01 assumed to be triplet.
 Vector  55 SDiff=5.35D-01 TDiff=1.76D+00 assumed to be singlet.
 Vector  57 SDiff=1.75D+00 TDiff=6.57D-01 assumed to be triplet.
 Vector  59 SDiff=1.12D-01 TDiff=1.28D+00 assumed to be singlet.
 Vector  60 SDiff=1.39D+00 TDiff=8.98D-01 assumed to be triplet.
 Iteration     2 Dimension   180 NMult   120 NNew     60
 CISAX will form    60 AO SS matrices at one time.
 NMat=    60 NSing=    27 JSym2X= 0.
 Root      1 not converged, maximum delta is    0.085504403591400
 Root      2 not converged, maximum delta is    0.076986800367877
 Root      3 not converged, maximum delta is    0.048447593368798
 Root      4 not converged, maximum delta is    0.045917904091659
 Root      5 not converged, maximum delta is    0.030135407419732
 Root      6 not converged, maximum delta is    0.034155508258125
 Root      7 not converged, maximum delta is    0.146006055572516
 Root      8 not converged, maximum delta is    0.022628359471450
 Root      9 not converged, maximum delta is    0.098103080947758
 Root     10 not converged, maximum delta is    0.066949241843046
 Root     11 not converged, maximum delta is    0.089725463165042
 Root     12 not converged, maximum delta is    0.070562579506104
 Root     13 not converged, maximum delta is    0.039034238882864
 Root     14 not converged, maximum delta is    0.271327828341036
 Root     15 not converged, maximum delta is    0.039320243808188
 New state     16 was old state     17
 Root     16 not converged, maximum delta is    0.326787405491472
 New state     17 was old state     16
 Root     17 not converged, maximum delta is    0.036649061810857
 Root     18 not converged, maximum delta is    0.170063435426583
 New state     19 was old state     21
 Root     19 not converged, maximum delta is    0.271061041188588
 New state     20 was old state     19
 Root     20 not converged, maximum delta is    0.037447205241135
 New state     21 was old state     24
 Root     21 not converged, maximum delta is    0.210126027918234
 New state     22 was old state     20
 Root     22 not converged, maximum delta is    0.402322622421397
 New state     23 was old state     22
 Root     23 not converged, maximum delta is    0.283079739817442
 New state     24 was old state     23
 Root     24 not converged, maximum delta is    0.175914161709813
 New state     25 was old state     26
 Root     25 not converged, maximum delta is    0.084514345463735
 New state     26 was old state     28
 Root     26 not converged, maximum delta is    0.054676807302603
 New state     27 was old state     31
 Root     27 not converged, maximum delta is    0.090775445941950
 New state     28 was old state     32
 Root     28 not converged, maximum delta is    0.183621408048008
 New state     29 was old state     35
 Root     29 not converged, maximum delta is    0.325377160089287
 New state     30 was old state     36
 Root     30 not converged, maximum delta is    0.256352180983158
 Excitation Energies [eV] at current iteration:
 Root      1 :    -0.977234534462148   Change is   -0.156696990788859
 Root      2 :     0.671664829442165   Change is   -0.148429042956384
 Root      3 :     1.148055027815538   Change is   -0.120550403230831
 Root      4 :     1.296839710213089   Change is   -0.220979659450175
 Root      5 :     1.695664112470746   Change is   -0.206951681401720
 Root      6 :     2.361288034604594   Change is   -0.136169528279217
 Root      7 :     2.385403507595578   Change is   -0.539554929964647
 Root      8 :     3.148314090325977   Change is   -0.072100274682735
 Root      9 :     3.187354484703306   Change is   -0.121517849876998
 Root     10 :     3.244996596608913   Change is   -0.094820105460061
 Root     11 :     3.371063296189005   Change is   -0.098873763958280
 Root     12 :     3.432720729907442   Change is   -0.090811558709844
 Root     13 :     3.572987497003953   Change is   -0.104827579126222
 Root     14 :     3.662388252672324   Change is   -0.111716115876942
 Root     15 :     3.686050621832030   Change is   -0.102126577762641
 Root     16 :     3.757783774856394   Change is   -0.176573107142733
 Root     17 :     3.799789283114611   Change is   -0.118370864706753
 Root     18 :     3.899828695538088   Change is   -0.077225003431102
 Root     19 :     4.110865933961541   Change is   -0.443754268762439
 Root     20 :     4.334782899830806   Change is   -0.152997455950882
 Root     21 :     4.391341266632297   Change is   -0.398794932440448
 Root     22 :     4.413152055219346   Change is   -0.094065734644130
 Root     23 :     4.486127337454551   Change is   -0.088844768532277
 Root     24 :     4.576176976184829   Change is   -0.135092416463267
 Root     25 :     4.940452766927950   Change is   -0.165016544089491
 Root     26 :     5.060480741769801   Change is   -0.192949058668758
 Root     27 :     5.342526007229305   Change is   -0.154957767731399
 Root     28 :     5.399203420219816   Change is   -0.166850975078959
 Root     29 :     5.462424488364935   Change is   -0.182424661334006
 Root     30 :     5.611796053711488   Change is   -0.061626827058185
 Iteration     3 Dimension   240 NMult   180 NNew     60
 CISAX will form    60 AO SS matrices at one time.
 NMat=    60 NSing=    30 JSym2X= 0.
 Root      1 not converged, maximum delta is    0.006547424724631
 Root      2 not converged, maximum delta is    0.007798213924322
 Root      3 not converged, maximum delta is    0.007200735849966
 Root      4 not converged, maximum delta is    0.004476171829533
 Root      5 not converged, maximum delta is    0.003617529181328
 Root      6 not converged, maximum delta is    0.006342640740297
 Root      7 not converged, maximum delta is    0.004794515800392
 Root      8 not converged, maximum delta is    0.002129979198457
 Root      9 not converged, maximum delta is    0.003639362396520
 Root     10 not converged, maximum delta is    0.006288834467439
 Root     11 not converged, maximum delta is    0.001940052881234
 Root     12 not converged, maximum delta is    0.007065632346575
 Root     13 not converged, maximum delta is    0.005218062886888
 Root     14 not converged, maximum delta is    0.016818474256845
 Root     15 not converged, maximum delta is    0.006928908861177
 Root     16 not converged, maximum delta is    0.011933882288407
 Root     17 not converged, maximum delta is    0.004499318109404
 Root     18 not converged, maximum delta is    0.004396191750257
 Root     19 not converged, maximum delta is    0.011125386287348
 Root     20 not converged, maximum delta is    0.004607750520217
 Root     21 not converged, maximum delta is    0.005912643284800
 Root     22 not converged, maximum delta is    0.010697630087708
 Root     23 not converged, maximum delta is    0.013393497368890
 Root     24 not converged, maximum delta is    0.007270601529957
 Root     25 not converged, maximum delta is    0.011818530475503
 Root     26 not converged, maximum delta is    0.011967368404017
 Root     27 not converged, maximum delta is    0.060051542538804
 Root     28 not converged, maximum delta is    0.065452303493847
 Root     29 not converged, maximum delta is    0.127008463492473
 Root     30 not converged, maximum delta is    0.157127314837419
 Excitation Energies [eV] at current iteration:
 Root      1 :    -0.983972009815203   Change is   -0.006737475353055
 Root      2 :     0.666046425263422   Change is   -0.005618404178743
 Root      3 :     1.143512528099165   Change is   -0.004542499716372
 Root      4 :     1.291051148896821   Change is   -0.005788561316268
 Root      5 :     1.691118522616417   Change is   -0.004545589854329
 Root      6 :     2.355372913976880   Change is   -0.005915120627713
 Root      7 :     2.364427979079203   Change is   -0.020975528516375
 Root      8 :     3.146335172940028   Change is   -0.001978917385949
 Root      9 :     3.181073083235808   Change is   -0.006281401467498
 Root     10 :     3.240513314500672   Change is   -0.004483282108240
 Root     11 :     3.368133605582577   Change is   -0.002929690606428
 Root     12 :     3.428677743310904   Change is   -0.004042986596538
 Root     13 :     3.567994491685292   Change is   -0.004993005318661
 Root     14 :     3.656284637027574   Change is   -0.006103615644750
 Root     15 :     3.681781496769524   Change is   -0.004269125062506
 Root     16 :     3.752921955212303   Change is   -0.004861819644091
 Root     17 :     3.797338481475944   Change is   -0.002450801638666
 Root     18 :     3.896719148059965   Change is   -0.003109547478123
 Root     19 :     4.094383528149048   Change is   -0.016482405812493
 Root     20 :     4.328572887172028   Change is   -0.006210012658779
 Root     21 :     4.381765534432175   Change is   -0.009575732200122
 Root     22 :     4.403392734852376   Change is   -0.009759320366970
 Root     23 :     4.479036143607392   Change is   -0.007091193847160
 Root     24 :     4.568851102717888   Change is   -0.007325873466942
 Root     25 :     4.931829891851209   Change is   -0.008622875076741
 Root     26 :     5.050472040638971   Change is   -0.010008701130830
 Root     27 :     5.324493150975858   Change is   -0.018032856253448
 Root     28 :     5.370068721568359   Change is   -0.029134698651458
 Root     29 :     5.417265493770092   Change is   -0.045158994594842
 Root     30 :     5.514629807310381   Change is   -0.097166246401108
 Iteration     4 Dimension   300 NMult   240 NNew     60
 CISAX will form    60 AO SS matrices at one time.
 NMat=    60 NSing=    30 JSym2X= 0.
 Root      1 has converged.
 Root      2 has converged.
 Root      3 has converged.
 Root      4 has converged.
 Root      5 has converged.
 Root      6 has converged.
 Root      7 has converged.
 Root      8 has converged.
 Root      9 has converged.
 Root     10 has converged.
 Root     11 has converged.
 Root     12 has converged.
 Root     13 not converged, maximum delta is    0.001107594297964
 Root     14 has converged.
 Root     15 not converged, maximum delta is    0.001198525910682
 Root     16 has converged.
 Root     17 has converged.
 Root     18 not converged, maximum delta is    0.001230359711995
 Root     19 not converged, maximum delta is    0.002246768983132
 Root     20 not converged, maximum delta is    0.001549991353176
 Root     21 not converged, maximum delta is    0.001022678408953
 Root     22 not converged, maximum delta is    0.001157859408882
 Root     23 not converged, maximum delta is    0.001769698351447
 Root     24 not converged, maximum delta is    0.001924767706249
 Root     25 not converged, maximum delta is    0.002589045644520
 Root     26 not converged, maximum delta is    0.002339011890398
 Root     27 not converged, maximum delta is    0.002307924364668
 Root     28 not converged, maximum delta is    0.004352863960958
 Root     29 not converged, maximum delta is    0.017545408472874
 Root     30 not converged, maximum delta is    0.034566125569557
 Excitation Energies [eV] at current iteration:
 Root      1 :    -0.984039706456546   Change is   -0.000067696641343
 Root      2 :     0.665959804849156   Change is   -0.000086620414266
 Root      3 :     1.143443426307599   Change is   -0.000069101791567
 Root      4 :     1.290810133104733   Change is   -0.000241015792088
 Root      5 :     1.690933443833442   Change is   -0.000185078782975
 Root      6 :     2.355210812063730   Change is   -0.000162101913150
 Root      7 :     2.363943849263379   Change is   -0.000484129815824
 Root      8 :     3.146274372278477   Change is   -0.000060800661551
 Root      9 :     3.180862691177502   Change is   -0.000210392058305
 Root     10 :     3.240400514455818   Change is   -0.000112800044854
 Root     11 :     3.368058203376451   Change is   -0.000075402206126
 Root     12 :     3.428552808334566   Change is   -0.000124934976338
 Root     13 :     3.567820287643691   Change is   -0.000174204041601
 Root     14 :     3.655940449252041   Change is   -0.000344187775534
 Root     15 :     3.681629891121626   Change is   -0.000151605647898
 Root     16 :     3.752713123465654   Change is   -0.000208831746649
 Root     17 :     3.797229960627822   Change is   -0.000108520848122
 Root     18 :     3.896570368810754   Change is   -0.000148779249211
 Root     19 :     4.093716479015217   Change is   -0.000667049133830
 Root     20 :     4.328259583874071   Change is   -0.000313303297956
 Root     21 :     4.381436984994296   Change is   -0.000328549437879
 Root     22 :     4.403025838057802   Change is   -0.000366896794573
 Root     23 :     4.478703777941038   Change is   -0.000332365666353
 Root     24 :     4.568442418612983   Change is   -0.000408684104905
 Root     25 :     4.931249501733575   Change is   -0.000580390117635
 Root     26 :     5.049706579457188   Change is   -0.000765461181784
 Root     27 :     5.323650726202382   Change is   -0.000842424773476
 Root     28 :     5.368450710611747   Change is   -0.001618010956612
 Root     29 :     5.414285615007182   Change is   -0.002979878762911
 Root     30 :     5.508322478150908   Change is   -0.006307329159472
 Iteration     5 Dimension   330 NMult   300 NNew     30
 CISAX will form    30 AO SS matrices at one time.
 NMat=    30 NSing=    16 JSym2X= 0.
 Root      1 has converged.
 Root      2 has converged.
 Root      3 has converged.
 Root      4 has converged.
 Root      5 has converged.
 Root      6 has converged.
 Root      7 has converged.
 Root      8 has converged.
 Root      9 has converged.
 Root     10 has converged.
 Root     11 has converged.
 Root     12 has converged.
 Root     13 has converged.
 Root     14 has converged.
 Root     15 has converged.
 Root     16 has converged.
 Root     17 has converged.
 Root     18 has converged.
 Root     19 has converged.
 Root     20 has converged.
 Root     21 has converged.
 Root     22 has converged.
 Root     23 has converged.
 Root     24 has converged.
 Root     25 has converged.
 Root     26 has converged.
 Root     27 has converged.
 Root     28 has converged.
 Root     29 not converged, maximum delta is    0.005439754412848
 Root     30 not converged, maximum delta is    0.008843769931370
 Excitation Energies [eV] at current iteration:
 Root      1 :    -0.984034889507696   Change is    0.000004816948850
 Root      2 :     0.665959640230253   Change is   -0.000000164618903
 Root      3 :     1.143443174259582   Change is   -0.000000252048017
 Root      4 :     1.290808432158631   Change is   -0.000001700946102
 Root      5 :     1.690932882176932   Change is   -0.000000561656510
 Root      6 :     2.355210130671377   Change is   -0.000000681392353
 Root      7 :     2.363942104692022   Change is   -0.000001744571357
 Root      8 :     3.146273965760345   Change is   -0.000000406518131
 Root      9 :     3.180861790743672   Change is   -0.000000900433830
 Root     10 :     3.240400187516126   Change is   -0.000000326939691
 Root     11 :     3.368057714153005   Change is   -0.000000489223446
 Root     12 :     3.428551777678466   Change is   -0.000001030656100
 Root     13 :     3.567811743142160   Change is   -0.000008544501531
 Root     14 :     3.655936836699864   Change is   -0.000003612552177
 Root     15 :     3.681621782386390   Change is   -0.000008108735236
 Root     16 :     3.752711573955839   Change is   -0.000001549509815
 Root     17 :     3.797227833814812   Change is   -0.000002126813010
 Root     18 :     3.896565410661597   Change is   -0.000004958149157
 Root     19 :     4.093690629669492   Change is   -0.000025849345725
 Root     20 :     4.328246737991502   Change is   -0.000012845882569
 Root     21 :     4.381425098017305   Change is   -0.000011886976992
 Root     22 :     4.403010840823093   Change is   -0.000014997234709
 Root     23 :     4.478686145698107   Change is   -0.000017632242931
 Root     24 :     4.568412670214685   Change is   -0.000029748398298
 Root     25 :     4.931223329025559   Change is   -0.000026172708015
 Root     26 :     5.049669851212784   Change is   -0.000036728244403
 Root     27 :     5.323604446790155   Change is   -0.000046279412227
 Root     28 :     5.368350567365487   Change is   -0.000100143246259
 Root     29 :     5.414022844834926   Change is   -0.000262770172256
 Root     30 :     5.507781678548317   Change is   -0.000540799602591
 Iteration     6 Dimension   334 NMult   330 NNew      4
 CISAX will form     4 AO SS matrices at one time.
 NMat=     4 NSing=     4 JSym2X= 0.
 Root      1 has converged.
 Root      2 has converged.
 Root      3 has converged.
 Root      4 has converged.
 Root      5 has converged.
 Root      6 has converged.
 Root      7 has converged.
 Root      8 has converged.
 Root      9 has converged.
 Root     10 has converged.
 Root     11 has converged.
 Root     12 has converged.
 Root     13 has converged.
 Root     14 has converged.
 Root     15 has converged.
 Root     16 has converged.
 Root     17 has converged.
 Root     18 has converged.
 Root     19 has converged.
 Root     20 has converged.
 Root     21 has converged.
 Root     22 has converged.
 Root     23 has converged.
 Root     24 has converged.
 Root     25 has converged.
 Root     26 has converged.
 Root     27 has converged.
 Root     28 has converged.
 Root     29 has converged.
 Root     30 not converged, maximum delta is    0.001834302586148
 Excitation Energies [eV] at current iteration:
 Root      1 :    -0.984034889507445   Change is    0.000000000000251
 Root      2 :     0.665959640230376   Change is    0.000000000000123
 Root      3 :     1.143443174259510   Change is   -0.000000000000072
 Root      4 :     1.290808107774170   Change is   -0.000000324384461
 Root      5 :     1.690932827522029   Change is   -0.000000054654903
 Root      6 :     2.355210130671447   Change is    0.000000000000070
 Root      7 :     2.363941701498690   Change is   -0.000000403193332
 Root      8 :     3.146273965760345   Change is    0.000000000000000
 Root      9 :     3.180861696358261   Change is   -0.000000094385411
 Root     10 :     3.240400187516126   Change is    0.000000000000000
 Root     11 :     3.368057690607546   Change is   -0.000000023545460
 Root     12 :     3.428551777678513   Change is    0.000000000000048
 Root     13 :     3.567811743142205   Change is    0.000000000000046
 Root     14 :     3.655936771574871   Change is   -0.000000065124993
 Root     15 :     3.681621782386301   Change is   -0.000000000000089
 Root     16 :     3.752711445350574   Change is   -0.000000128605265
 Root     17 :     3.797227833814791   Change is   -0.000000000000021
 Root     18 :     3.896565407849479   Change is   -0.000000002812118
 Root     19 :     4.093690629669593   Change is    0.000000000000100
 Root     20 :     4.328246710833342   Change is   -0.000000027158159
 Root     21 :     4.381425098017341   Change is    0.000000000000037
 Root     22 :     4.403010840823074   Change is   -0.000000000000019
 Root     23 :     4.478686145697997   Change is   -0.000000000000110
 Root     24 :     4.568412670214703   Change is    0.000000000000018
 Root     25 :     4.931223147148439   Change is   -0.000000181877119
 Root     26 :     5.049669832834377   Change is   -0.000000018378407
 Root     27 :     5.323604415179093   Change is   -0.000000031611062
 Root     28 :     5.368349868298641   Change is   -0.000000699066847
 Root     29 :     5.414005261396249   Change is   -0.000017583438677
 Root     30 :     5.507742585861249   Change is   -0.000039092687068
 Iteration     7 Dimension   336 NMult   334 NNew      2
 CISAX will form     2 AO SS matrices at one time.
 NMat=     2 NSing=     2 JSym2X= 0.
 Root      1 has converged.
 Root      2 has converged.
 Root      3 has converged.
 Root      4 has converged.
 Root      5 has converged.
 Root      6 has converged.
 Root      7 has converged.
 Root      8 has converged.
 Root      9 has converged.
 Root     10 has converged.
 Root     11 has converged.
 Root     12 has converged.
 Root     13 has converged.
 Root     14 has converged.
 Root     15 has converged.
 Root     16 has converged.
 Root     17 has converged.
 Root     18 has converged.
 Root     19 has converged.
 Root     20 has converged.
 Root     21 has converged.
 Root     22 has converged.
 Root     23 has converged.
 Root     24 has converged.
 Root     25 has converged.
 Root     26 has converged.
 Root     27 has converged.
 Root     28 has converged.
 Root     29 has converged.
 Root     30 has converged.
 Excitation Energies [eV] at current iteration:
 Root      1 :    -0.984034889506735   Change is    0.000000000000710
 Root      2 :     0.665959640230129   Change is   -0.000000000000247
 Root      3 :     1.143443174259654   Change is    0.000000000000144
 Root      4 :     1.290808074778453   Change is   -0.000000032995717
 Root      5 :     1.690932767508838   Change is   -0.000000060013191
 Root      6 :     2.355210130671516   Change is    0.000000000000070
 Root      7 :     2.363941656482288   Change is   -0.000000045016402
 Root      8 :     3.146273965760267   Change is   -0.000000000000078
 Root      9 :     3.180861681837600   Change is   -0.000000014520660
 Root     10 :     3.240400187516279   Change is    0.000000000000152
 Root     11 :     3.368057683907236   Change is   -0.000000006700310
 Root     12 :     3.428551777678417   Change is   -0.000000000000096
 Root     13 :     3.567811743142160   Change is   -0.000000000000046
 Root     14 :     3.655936725857616   Change is   -0.000000045717254
 Root     15 :     3.681621782386457   Change is    0.000000000000156
 Root     16 :     3.752711411990880   Change is   -0.000000033359694
 Root     17 :     3.797227833814877   Change is    0.000000000000086
 Root     18 :     3.896565407707156   Change is   -0.000000000142323
 Root     19 :     4.093690629669492   Change is   -0.000000000000100
 Root     20 :     4.328246710132036   Change is   -0.000000000701307
 Root     21 :     4.381425098017229   Change is   -0.000000000000113
 Root     22 :     4.403010840823113   Change is    0.000000000000038
 Root     23 :     4.478686145698143   Change is    0.000000000000147
 Root     24 :     4.568412670214649   Change is   -0.000000000000054
 Root     25 :     4.931223114163878   Change is   -0.000000032984561
 Root     26 :     5.049669827861506   Change is   -0.000000004972871
 Root     27 :     5.323604380548178   Change is   -0.000000034630915
 Root     28 :     5.368349725869557   Change is   -0.000000142429084
 Root     29 :     5.414005033624903   Change is   -0.000000227771346
 Root     30 :     5.507740584516691   Change is   -0.000002001344557
 Convergence achieved on expansion vectors.
 ***********************************************************************
 Excited states from <AA,BB:AA,BB> singles matrix:
 ***********************************************************************
 
 1PDM for each excited state written to RWF  633
 Ground to excited state transition densities written to RWF  633
 Ground to excited state transition electric dipole moments (Au):
       state          X           Y           Z        Dip. S.      Osc.
         1        -0.0000     -0.0000      0.0000      0.0000     -0.0000
         2        -0.0000     -0.0000     -0.0000      0.0000      0.0000
         3         0.0000      0.0000      0.0000      0.0000      0.0000
         4         0.1290     -0.3198      0.0047      0.1189      0.0038
         5         0.3098      0.1019      0.1474      0.1281      0.0053
         6         0.0000      0.0000     -0.0000      0.0000      0.0000
         7        -2.5014     -0.9335      0.1373      7.1475      0.4140
         8        -0.0000     -0.0000      0.0000      0.0000      0.0000
         9         0.1116     -0.7804      0.0421      0.6232      0.0486
        10         0.0000      0.0000     -0.0000      0.0000      0.0000
        11         0.7122      0.1334     -0.0822      0.5319      0.0439
        12         0.0000      0.0000     -0.0000      0.0000      0.0000
        13        -0.0000     -0.0000     -0.0000      0.0000      0.0000
        14         0.5127     -0.8887      0.0196      1.0531      0.0943
        15         0.0000     -0.0000     -0.0000      0.0000      0.0000
        16        -0.3542      0.7298     -0.0124      0.6582      0.0605
        17        -0.0000     -0.0000     -0.0000      0.0000      0.0000
        18         0.2229      0.2105      0.0282      0.0948      0.0090
        19        -0.0000     -0.0000     -0.0000      0.0000      0.0000
        20         0.0980     -0.0389     -0.0143      0.0113      0.0012
        21         0.0000     -0.0000      0.0000      0.0000      0.0000
        22         0.0000      0.0000      0.0000      0.0000      0.0000
        23         0.0000      0.0000      0.0000      0.0000      0.0000
        24         0.0000     -0.0000     -0.0000      0.0000      0.0000
        25        -0.2466      0.0188      0.0196      0.0615      0.0074
        26         0.3008      0.2443     -0.0270      0.1509      0.0187
        27         0.5285      0.2274      0.1917      0.3678      0.0480
        28        -0.0026      0.0636     -0.2001      0.0441      0.0058
        29         0.2784     -0.1761      0.0021      0.1085      0.0144
        30         0.9103      0.1971      0.0282      0.8683      0.1172
 Ground to excited state transition velocity dipole moments (Au):
       state          X           Y           Z        Dip. S.      Osc.
         1        -0.0000     -0.0000     -0.0000      0.0000     -0.0000
         2        -0.0000      0.0000     -0.0000      0.0000      0.0000
         3        -0.0000     -0.0000     -0.0000      0.0000      0.0000
         4        -0.0074      0.0190     -0.0002      0.0004      0.0059
         5        -0.0168     -0.0052     -0.0085      0.0004      0.0041
         6        -0.0000     -0.0000     -0.0000      0.0000      0.0000
         7         0.2014      0.0751     -0.0146      0.0464      0.3562
         8        -0.0000      0.0000     -0.0000      0.0000      0.0000
         9        -0.0116      0.0872     -0.0054      0.0078      0.0443
        10        -0.0000     -0.0000      0.0000      0.0000      0.0000
        11        -0.0861     -0.0168      0.0115      0.0078      0.0422
        12        -0.0000     -0.0000      0.0000      0.0000      0.0000
        13         0.0000      0.0000      0.0000      0.0000      0.0000
        14        -0.0670      0.1180     -0.0033      0.0184      0.0914
        15        -0.0000      0.0000      0.0000      0.0000      0.0000
        16         0.0464     -0.0963      0.0017      0.0114      0.0553
        17        -0.0000     -0.0000      0.0000      0.0000      0.0000
        18        -0.0310     -0.0299     -0.0069      0.0019      0.0089
        19        -0.0000      0.0000      0.0000      0.0000      0.0000
        20        -0.0170      0.0112      0.0014      0.0004      0.0017
        21        -0.0000      0.0000     -0.0000      0.0000      0.0000
        22        -0.0000     -0.0000     -0.0000      0.0000      0.0000
        23         0.0000     -0.0000     -0.0000      0.0000      0.0000
        24        -0.0000     -0.0000      0.0000      0.0000      0.0000
        25         0.0485     -0.0019     -0.0057      0.0024      0.0088
        26        -0.0586     -0.0469      0.0041      0.0056      0.0203
        27        -0.0995     -0.0410     -0.0335      0.0127      0.0433
        28        -0.0034     -0.0124      0.0339      0.0013      0.0044
        29        -0.0542      0.0336     -0.0017      0.0041      0.0136
        30        -0.1753     -0.0396     -0.0062      0.0323      0.1065
 Ground to excited state transition magnetic dipole moments (Au):
       state          X           Y           Z
         1         0.0000     -0.0000      0.0000
         2         0.0000      0.0000      0.0000
         3        -0.0000     -0.0000     -0.0000
         4         0.1377     -0.4337      0.0855
         5         0.4674      0.1131     -0.6408
         6        -0.0000     -0.0000     -0.0000
         7         0.0169     -0.0007     -0.0963
         8         0.0000     -0.0000     -0.0000
         9         0.0413      0.0062      0.0462
        10        -0.0000      0.0000      0.0000
        11         0.0019      0.0126      0.0303
        12        -0.0000      0.0000     -0.0000
        13        -0.0000     -0.0000      0.0000
[...]
     3  C    0.000150   0.000003  -0.000015   0.000015   0.001500   0.006938
     4  C    0.003614   0.000081   0.000067   0.000262  -0.002919  -0.017208
     5  N   -0.067498   0.007730  -0.000315   0.005116  -0.060695   0.000256
     6  C    0.009291   0.000574   0.000207  -0.000319   0.005997   0.000107
     7  C    0.001545  -0.000198   0.000007  -0.000009  -0.000245   0.000507
     8  C   -0.000333   0.000013  -0.000001   0.000000  -0.000009   0.000035
     9  C   -0.000045  -0.000044   0.000001  -0.000001   0.000007   0.000002
    10  C   -0.004785   0.000412  -0.000041   0.000012  -0.000194  -0.000002
    11  C    0.023958  -0.004684  -0.000026  -0.000334   0.001525   0.000005
    12  C    0.154546   0.093412  -0.131042   0.114734   0.186423  -0.000013
    13  C    5.153990   0.288141   0.080604  -0.122459   0.040211   0.000000
    14  C    0.288141   4.956493   0.286431   0.083037  -0.110265  -0.000000
    15  C    0.080604   0.286431   4.966290   0.246364   0.063658   0.000000
    16  C   -0.122459   0.083037   0.246364   4.924656   0.343908   0.000000
    17  C    0.040211  -0.110265   0.063658   0.343908   5.076204   0.000002
    18  H    0.000000  -0.000000   0.000000   0.000000   0.000002   0.436399
    19  H   -0.000000   0.000000  -0.000000  -0.000000  -0.000001  -0.017339
    20  H   -0.000004   0.000000  -0.000000  -0.000002   0.000237  -0.000042
    21  H    0.000059  -0.000000   0.000000   0.000000   0.000011   0.000330
    22  H    0.000001  -0.000000   0.000000   0.000000  -0.000000  -0.000000
    23  H   -0.000003   0.000000   0.000000   0.000000   0.000000  -0.000000
    24  H   -0.000068   0.000038  -0.000001   0.000001  -0.000003   0.000000
    25  H    0.003849  -0.003745   0.000435  -0.000248   0.000258  -0.000000
    26  H    0.423882  -0.032119   0.008751  -0.001164   0.007212  -0.000000
    27  H   -0.049946   0.440808  -0.044136   0.008572  -0.001161   0.000000
    28  H    0.010734  -0.048611   0.438120  -0.048434   0.010193  -0.000000
    29  H   -0.001071   0.008629  -0.045189   0.436005  -0.045910  -0.000000
    30  H    0.008688  -0.001782   0.010334  -0.031084   0.442442   0.000002
              19         20         21         22         23         24
     1  N    0.349034  -0.000648   0.000933  -0.000001  -0.000000   0.000000
     2  C    0.004947  -0.032047   0.000488   0.000002  -0.000000   0.000000
     3  C   -0.011375   0.448106  -0.000791  -0.000001   0.000000  -0.000000
     4  C    0.010852  -0.048223   0.000431  -0.000020  -0.000000   0.000004
     5  N   -0.000046  -0.000924  -0.008960  -0.000061   0.000008  -0.000043
     6  C   -0.000011  -0.000069  -0.072171   0.011128  -0.001311   0.010296
     7  C   -0.000001  -0.000009   0.441639  -0.047279   0.010376  -0.001185
     8  C   -0.000000   0.000000  -0.030236   0.436620  -0.049153   0.008692
     9  C   -0.000000  -0.000000   0.010341  -0.044949   0.438982  -0.044643
    10  C    0.000000   0.000000  -0.001793   0.008712  -0.048972   0.441772
    11  C   -0.000000  -0.000000   0.008777  -0.001061   0.010847  -0.050750
    12  C    0.000006   0.000523  -0.000428   0.000006   0.000000  -0.000058
    13  C   -0.000000  -0.000004   0.000059   0.000001  -0.000003  -0.000068
    14  C    0.000000   0.000000  -0.000000  -0.000000   0.000000   0.000038
    15  C   -0.000000  -0.000000   0.000000   0.000000   0.000000  -0.000001
    16  C   -0.000000  -0.000002   0.000000   0.000000   0.000000   0.000001
    17  C   -0.000001   0.000237   0.000011  -0.000000   0.000000  -0.000003
    18  H   -0.017339  -0.000042   0.000330  -0.000000  -0.000000   0.000000
    19  H    0.414472   0.000300  -0.000029   0.000000  -0.000000   0.000000
    20  H    0.000300   0.457688  -0.000008   0.000000   0.000000  -0.000000
    21  H   -0.000029  -0.000008   0.572855  -0.009150  -0.000081   0.000008
    22  H    0.000000   0.000000  -0.009150   0.516222  -0.007367  -0.000067
    23  H   -0.000000   0.000000  -0.000081  -0.007367   0.503972  -0.007824
    24  H    0.000000  -0.000000   0.000008  -0.000067  -0.007824   0.516318
    25  H    0.000000  -0.000000  -0.000041   0.000007  -0.000079  -0.007635
    26  H   -0.000000  -0.000000   0.000018  -0.000002   0.000004  -0.000053
    27  H   -0.000000  -0.000000  -0.000000  -0.000000   0.000000   0.000002
    28  H    0.000000  -0.000000   0.000000   0.000000  -0.000000   0.000000
    29  H    0.000000   0.000001  -0.000000  -0.000000   0.000000  -0.000000
    30  H   -0.000001  -0.000064   0.000000  -0.000000  -0.000000  -0.000000
              25         26         27         28         29         30
     1  N   -0.000000  -0.000000  -0.000000   0.000000  -0.000000  -0.000014
     2  C    0.000004  -0.000052  -0.000000   0.000000  -0.000001  -0.001600
     3  C   -0.000018   0.000014   0.000000  -0.000000   0.000005  -0.000316
     4  C   -0.000678  -0.000904   0.000003   0.000000  -0.000026   0.003018
     5  N   -0.013020  -0.013182  -0.000043   0.000008  -0.000058  -0.008644
     6  C   -0.050525   0.004883  -0.000056  -0.000000   0.000005  -0.000309
     7  C    0.007439   0.000233  -0.000003   0.000000  -0.000000   0.000015
     8  C   -0.001189  -0.000280   0.000001   0.000000   0.000000  -0.000000
     9  C    0.008880   0.000483  -0.000001   0.000000   0.000000   0.000000
    10  C   -0.032577  -0.003951   0.000038   0.000000  -0.000000  -0.000001
    11  C    0.425693   0.004150  -0.000075  -0.000002   0.000001   0.000047
    12  C    0.004921  -0.048916   0.010121  -0.001272   0.011023  -0.069825
    13  C    0.003849   0.423882  -0.049946   0.010734  -0.001071   0.008688
    14  C   -0.003745  -0.032119   0.440808  -0.048611   0.008629  -0.001782
    15  C    0.000435   0.008751  -0.044136   0.438120  -0.045189   0.010334
    16  C   -0.000248  -0.001164   0.008572  -0.048434   0.436005  -0.031084
    17  C    0.000258   0.007212  -0.001161   0.010193  -0.045910   0.442442
    18  H   -0.000000  -0.000000   0.000000  -0.000000  -0.000000   0.000002
    19  H    0.000000  -0.000000  -0.000000   0.000000   0.000000  -0.000001
    20  H   -0.000000  -0.000000  -0.000000  -0.000000   0.000001  -0.000064
    21  H   -0.000041   0.000018  -0.000000   0.000000  -0.000000   0.000000
    22  H    0.000007  -0.000002  -0.000000   0.000000  -0.000000  -0.000000
    23  H   -0.000079   0.000004   0.000000  -0.000000   0.000000  -0.000000
    24  H   -0.007635  -0.000053   0.000002   0.000000  -0.000000  -0.000000
    25  H    0.527175  -0.000062  -0.000049   0.000004  -0.000002   0.000029
    26  H   -0.000062   0.526780  -0.007591  -0.000079   0.000007  -0.000043
    27  H   -0.000049  -0.007591   0.515293  -0.007749  -0.000065   0.000008
    28  H    0.000004  -0.000079  -0.007749   0.502026  -0.007275  -0.000076
    29  H   -0.000002   0.000007  -0.000065  -0.007275   0.513450  -0.009116
    30  H    0.000029  -0.000043   0.000008  -0.000076  -0.009116   0.565924
 Mulliken charges:
               1
     1  N    0.118617
     2  C    0.127856
     3  C    0.019757
     4  C    0.198642
     5  N   -0.081674
     6  C    0.067700
     7  C    0.024210
     8  C    0.040279
     9  C    0.114884
    10  C    0.035368
    11  C    0.037128
    12  C    0.067909
    13  C    0.043354
    14  C    0.035634
    15  C    0.119499
    16  C    0.041318
    17  C    0.042592
    18  H    0.228135
    19  H    0.249192
    20  H    0.175186
    21  H    0.087798
    22  H    0.137258
    23  H    0.150601
    24  H    0.135198
    25  H    0.131175
    26  H    0.131984
    27  H    0.136030
    28  H    0.152414
    29  H    0.139586
    30  H    0.092369
 Sum of Mulliken charges =   3.00000
 Mulliken charges with hydrogens summed into heavy atoms:
               1
     1  N    0.595944
     2  C    0.127856
     3  C    0.194943
     4  C    0.198642
     5  N   -0.081674
     6  C    0.067700
     7  C    0.112008
     8  C    0.177537
     9  C    0.265485
    10  C    0.170567
    11  C    0.168303
    12  C    0.067909
    13  C    0.175338
    14  C    0.171665
    15  C    0.271914
    16  C    0.180903
    17  C    0.134961
 Electronic spatial extent (au):  <R**2>=           3957.5544
 Charge=              3.0000 electrons
 Dipole moment (field-independent basis, Debye):
    X=             -3.0163    Y=              5.2786    Z=              0.3462  Tot=              6.0895
 Quadrupole moment (field-independent basis, Debye-Ang):
   XX=             20.6400   YY=              8.0919   ZZ=            -82.0375
   XY=            -10.6022   XZ=             -0.4703   YZ=              0.6765
 Traceless Quadrupole moment (field-independent basis, Debye-Ang):
   XX=             38.4085   YY=             25.8605   ZZ=            -64.2690
   XY=            -10.6022   XZ=             -0.4703   YZ=              0.6765
 Octapole moment (field-independent basis, Debye-Ang**2):
  XXX=             61.8996  YYY=            112.2163  ZZZ=              1.8318  XYY=           -143.3791
  XXY=             12.9684  XXZ=              7.6148  XZZ=             -5.2640  YZZ=              0.6715
  YYZ=             12.0993  XYZ=             -0.3560
 Hexadecapole moment (field-independent basis, Debye-Ang**3):
 XXXX=          -1130.1599 YYYY=           -862.7336 ZZZZ=           -251.6000 XXXY=           -174.8626
 XXXZ=             31.6688 YYYX=           -180.3489 YYYZ=            -72.2220 ZZZX=              0.4962
 ZZZY=             -1.0000 XXYY=           -202.5956 XXZZ=           -452.9154 YYZZ=           -326.4120
 XXYZ=            137.2925 YYXZ=            -73.2051 ZZXY=            -13.4103
 N-N= 1.082496737241D+03 E-N=-3.703923184617D+03  KE= 6.788629132717D+02
 Leave Link  601 at Wed May 11 07:11:52 2022, MaxMem=  6442450944 cpu:               1.2 elap:               0.1
 (Enter /mnt/gpfs3_amd/share/apps/amd/gaussian/g16-A.03/g16/l9999.exe)
 Electronic transition elements 
                 1             2             3             4             5 
      1  -0.686590D+03 -0.686530D+03 -0.686512D+03 -0.686507D+03 -0.686492D+03
      2   0.000000D+00  0.000000D+00  0.000000D+00  0.128953D+00  0.309840D+00
      3   0.000000D+00  0.000000D+00  0.000000D+00 -0.319834D+00  0.101864D+00
      4   0.000000D+00  0.000000D+00  0.000000D+00  0.471928D-02  0.147371D+00
      5   0.000000D+00  0.000000D+00  0.000000D+00 -0.744459D-02 -0.168384D-01
      6   0.000000D+00  0.000000D+00  0.000000D+00  0.190182D-01 -0.515839D-02
      7   0.000000D+00  0.000000D+00  0.000000D+00 -0.191230D-03 -0.846819D-02
      8   0.000000D+00  0.000000D+00  0.000000D+00  0.137680D+00  0.467444D+00
      9   0.000000D+00  0.000000D+00  0.000000D+00 -0.433660D+00  0.113142D+00
     10   0.000000D+00  0.000000D+00  0.000000D+00  0.854682D-01 -0.640806D+00
     11   0.000000D+00  0.000000D+00  0.000000D+00 -0.252268D-01 -0.289055D-01
     12   0.000000D+00  0.000000D+00  0.000000D+00  0.260210D-01  0.202110D-01
     13   0.000000D+00  0.000000D+00  0.000000D+00 -0.151710D-01 -0.265543D-02
     14   0.000000D+00  0.000000D+00  0.000000D+00 -0.251405D-01  0.206414D-01
     15   0.000000D+00  0.000000D+00  0.000000D+00 -0.543404D-02 -0.791601D-02
     16   0.000000D+00  0.000000D+00  0.000000D+00 -0.381453D-02  0.143730D-01
                 6             7             8             9            10 
      1  -0.686468D+03 -0.686467D+03 -0.686439D+03 -0.686437D+03 -0.686435D+03
      2   0.000000D+00 -0.250144D+01  0.000000D+00  0.111579D+00  0.000000D+00
      3   0.000000D+00 -0.933505D+00  0.000000D+00 -0.780386D+00  0.000000D+00
      4   0.000000D+00  0.137324D+00  0.000000D+00  0.421421D-01  0.000000D+00
      5   0.000000D+00  0.201405D+00  0.000000D+00 -0.115793D-01  0.000000D+00
      6   0.000000D+00  0.751351D-01  0.000000D+00  0.871873D-01  0.000000D+00
      7   0.000000D+00 -0.145917D-01  0.000000D+00 -0.535189D-02  0.000000D+00
      8   0.000000D+00  0.168791D-01  0.000000D+00  0.412740D-01  0.000000D+00
      9   0.000000D+00 -0.740544D-03  0.000000D+00  0.624640D-02  0.000000D+00
     10   0.000000D+00 -0.962531D-01  0.000000D+00  0.462055D-01  0.000000D+00
     11   0.000000D+00  0.473282D+00  0.000000D+00 -0.238310D+00  0.000000D+00
     12   0.000000D+00 -0.373102D+00  0.000000D+00  0.207934D+00  0.000000D+00
     13   0.000000D+00 -0.991252D-02  0.000000D+00 -0.140794D-01  0.000000D+00
     14   0.000000D+00 -0.412825D+00  0.000000D+00 -0.330750D+00  0.000000D+00
     15   0.000000D+00 -0.305737D-01  0.000000D+00 -0.562100D-01  0.000000D+00
     16   0.000000D+00  0.922545D-01  0.000000D+00  0.901952D-03  0.000000D+00
                11            12            13            14            15 
      1  -0.686430D+03 -0.686428D+03 -0.686423D+03 -0.686420D+03 -0.686419D+03
      2   0.712246D+00  0.000000D+00  0.000000D+00  0.512723D+00  0.000000D+00
      3   0.133450D+00  0.000000D+00  0.000000D+00 -0.888712D+00  0.000000D+00
      4  -0.822479D-01  0.000000D+00  0.000000D+00  0.195885D-01  0.000000D+00
      5  -0.861416D-01  0.000000D+00  0.000000D+00 -0.670296D-01  0.000000D+00
      6  -0.168293D-01  0.000000D+00  0.000000D+00  0.117993D+00  0.000000D+00
      7   0.115113D-01  0.000000D+00  0.000000D+00 -0.328764D-02  0.000000D+00
      8   0.189464D-02  0.000000D+00  0.000000D+00  0.568965D-02  0.000000D+00
      9   0.126015D-01  0.000000D+00  0.000000D+00  0.171991D+00  0.000000D+00
     10   0.303337D-01  0.000000D+00  0.000000D+00  0.875075D-01  0.000000D+00
     11  -0.242874D+00  0.000000D+00  0.000000D+00 -0.359611D+00  0.000000D+00
     12   0.164673D+00  0.000000D+00  0.000000D+00  0.345655D+00  0.000000D+00
     13   0.892430D-02  0.000000D+00  0.000000D+00  0.577160D-02  0.000000D+00
     14   0.105049D+00  0.000000D+00  0.000000D+00 -0.375804D+00  0.000000D+00
     15   0.307787D-01  0.000000D+00  0.000000D+00 -0.991694D-01  0.000000D+00
     16  -0.105683D+00  0.000000D+00  0.000000D+00 -0.423413D-01  0.000000D+00
                16            17            18            19            20 
      1  -0.686416D+03 -0.686415D+03 -0.686411D+03 -0.686404D+03 -0.686395D+03
      2  -0.354242D+00  0.000000D+00  0.222890D+00  0.000000D+00  0.980062D-01
      3   0.729754D+00  0.000000D+00  0.210494D+00  0.000000D+00 -0.389427D-01
      4  -0.124251D-01  0.000000D+00  0.282208D-01  0.000000D+00 -0.143432D-01
      5   0.464276D-01  0.000000D+00 -0.309898D-01  0.000000D+00 -0.170110D-01
      6  -0.962959D-01  0.000000D+00 -0.299430D-01  0.000000D+00  0.111997D-01
      7   0.168223D-02  0.000000D+00 -0.691152D-02  0.000000D+00  0.140392D-02
      8  -0.943892D-01  0.000000D+00  0.708933D-01  0.000000D+00  0.485104D-01
      9   0.161879D+00  0.000000D+00 -0.273665D-01  0.000000D+00 -0.360943D-01
     10  -0.183566D+00  0.000000D+00 -0.327478D+00  0.000000D+00  0.111727D+00
     11   0.259527D+00  0.000000D+00 -0.618058D-01  0.000000D+00  0.517667D+00
     12  -0.271723D+00  0.000000D+00  0.514907D-01  0.000000D+00  0.300982D+00
     13   0.110247D-01  0.000000D+00 -0.763265D-03  0.000000D+00 -0.292286D-01
     14   0.309398D+00  0.000000D+00  0.144615D+00  0.000000D+00  0.182273D-01
     15  -0.277787D-02  0.000000D+00  0.130225D-01  0.000000D+00  0.107860D-01
     16   0.132446D-02  0.000000D+00  0.175156D-02  0.000000D+00  0.924527D-02
                21            22            23            24            25 
      1  -0.686393D+03 -0.686392D+03 -0.686390D+03 -0.686386D+03 -0.686373D+03
      2   0.000000D+00  0.000000D+00  0.000000D+00  0.000000D+00 -0.246595D+00
      3   0.000000D+00  0.000000D+00  0.000000D+00  0.000000D+00  0.188051D-01
      4   0.000000D+00  0.000000D+00  0.000000D+00  0.000000D+00  0.196123D-01
      5   0.000000D+00  0.000000D+00  0.000000D+00  0.000000D+00  0.485231D-01
      6   0.000000D+00  0.000000D+00  0.000000D+00  0.000000D+00 -0.190484D-02
      7   0.000000D+00  0.000000D+00  0.000000D+00  0.000000D+00 -0.567764D-02
      8   0.000000D+00  0.000000D+00  0.000000D+00  0.000000D+00  0.824661D-01
      9   0.000000D+00  0.000000D+00  0.000000D+00  0.000000D+00  0.156840D+00
     10   0.000000D+00  0.000000D+00  0.000000D+00  0.000000D+00  0.126458D+00
     11   0.000000D+00  0.000000D+00  0.000000D+00  0.000000D+00  0.580407D-02
     12   0.000000D+00  0.000000D+00  0.000000D+00  0.000000D+00 -0.180285D-01
     13   0.000000D+00  0.000000D+00  0.000000D+00  0.000000D+00  0.115918D-01
     14   0.000000D+00  0.000000D+00  0.000000D+00  0.000000D+00  0.104007D+00
     15   0.000000D+00  0.000000D+00  0.000000D+00  0.000000D+00 -0.410218D-01
     16   0.000000D+00  0.000000D+00  0.000000D+00  0.000000D+00  0.812648D-01
                26            27            28            29            30 
      1  -0.686369D+03 -0.686359D+03 -0.686357D+03 -0.686355D+03 -0.686352D+03
      2   0.300842D+00  0.528539D+00 -0.256716D-02  0.278394D+00  0.910297D+00
      3   0.244307D+00  0.227445D+00  0.635798D-01 -0.176136D+00  0.197150D+00
      4  -0.270217D-01  0.191664D+00 -0.200064D+00  0.205771D-02  0.281857D-01
      5  -0.585815D-01 -0.995075D-01 -0.342561D-02 -0.542005D-01 -0.175293D+00
      6  -0.469009D-01 -0.409580D-01 -0.123892D-01  0.335938D-01 -0.396378D-01
      7   0.406518D-02 -0.334714D-01  0.338937D-01 -0.167595D-02 -0.621072D-02
      8  -0.174684D-01  0.105191D+00 -0.250893D-01 -0.561253D-01  0.252999D+00
      9   0.791723D-01  0.289815D+00  0.153235D+00  0.328987D+00 -0.131017D+00
     10  -0.218271D+00 -0.655180D+00  0.265952D+00 -0.970145D-01 -0.293533D+00
     11   0.253636D-01 -0.255684D+00 -0.972524D-03 -0.843757D+00 -0.383223D+00
     12  -0.737842D-01  0.108339D+00  0.999316D-01  0.185184D+00  0.274028D+00
     13   0.317237D-01  0.774892D-02 -0.295890D-02  0.116785D-01  0.147612D-01
     14   0.729305D-01 -0.177706D-01  0.263351D+00 -0.244360D+00  0.338655D+00
     15   0.298707D-01 -0.711835D-01  0.629518D-02 -0.119842D+00  0.849483D-01
     16  -0.556155D-01 -0.448777D-01 -0.537400D-01 -0.686410D-01 -0.225021D-01

 Test job not archived.
 1\1\GINC-ROME019\SP\RLC-wHPBE TD-FC\def2SVP\C15H13N2(3+)\RDU230\11-May
 -2022\0\\#P LC-wHPBE/Def2SVP iop(3/107=0225700000, 3/108=0225700000) t
 d=(50-50,nstates=15)\\H13 C15 N2\\3,1\N,0,-2.706212,3.168114,0.457087\
 C,0,-1.554178,2.74779,0.056017\C,0,-0.305319,3.040756,-0.547428\C,0,-0
 .5581,1.774816,-0.161614\N,0,-0.067993,0.459461,-0.059972\C,0,-0.92877
 2,-0.622633,0.031365\C,0,-2.192779,-0.64244,-0.630427\C,0,-2.930932,-1
 .807466,-0.590944\C,0,-2.462186,-2.949889,0.135608\C,0,-1.234233,-2.93
 0991,0.814501\C,0,-0.476736,-1.768574,0.800995\C,0,1.296607,0.218381,-
 0.076937\C,0,1.743683,-1.014767,-0.70931\C,0,3.081686,-1.370898,-0.657
 643\C,0,3.995951,-0.491819,-0.05397\C,0,3.566965,0.741403,0.53727\C,0,
 2.239886,1.114632,0.512584\H,0,-3.388854,2.559012,0.926132\H,0,-2.9706
 95,4.159303,0.344817\H,0,0.357311,3.802376,-0.990335\H,0,-2.526112,0.1
 99791,-1.253434\H,0,-3.879155,-1.877463,-1.145032\H,0,-3.100159,-3.847
 074,0.187659\H,0,-0.916986,-3.796106,1.414752\H,0,0.378428,-1.65034,1.
 486077\H,0,1.043893,-1.564327,-1.359561\H,0,3.43602,-2.283352,-1.15903
 2\H,0,5.071459,-0.733172,-0.063059\H,0,4.308421,1.38085,1.039832\H,0,1
 .916608,2.027663,1.030986\\Version=AM64L-G16RevA.03\State=1-A\HF=-686.
 5542474\RMSD=9.667e-09\PG=C01 [X(C15H13N2)]\\@


      HUMANKIND PERIODICALLY GOES THROUGH A SPEEDUP OF ITS AFFAIRS, 
      THEREBY EXPERIENCING THE RACE BETWEEN THE RENEWABLE VITALITY
      OF THE LIVING, AND THE BECKONING VITIATION OF DECADENCE.
      IN THIS PERIODIC RACE, ANY PAUSE BECOMES A LUXURY.
      ONLY THEN CAN ONE REFLECT THAT ALL IS PERMITTED;
      ALL IS POSSIBLE.

                              -- THE APOCRYPHA OF MUAD'DIB
                                 CHILDREN OF DUNE, BY FRANK HERBERT
 Job cpu time:       0 days  7 hours 26 minutes 46.6 seconds.
 Elapsed time:       0 days  0 hours 28 minutes  7.9 seconds.
 File lengths (MBytes):  RWF=   1984 Int=      0 D2E=      0 Chk=    104 Scr=     16
 Normal termination of Gaussian 16 at Wed May 11 07:11:52 2022.
