 Entering Gaussian System, Link 0=/mnt/gpfs3_amd/share/apps/amd/gaussian/g16-A.03/g16/g16
 Input=/scratch/rdu230/d3tales/high_throughput/runfiles//06IVBN/gaussian/tddft/energy/singlet_triplet_cation1.com
 Output=/scratch/rdu230/d3tales/high_throughput/runfiles//06IVBN/gaussian/tddft/energy/singlet_triplet_cation1.log
 Initial command:
 /mnt/gpfs3_amd/share/apps/amd/gaussian/g16-A.03/g16/l1.exe "/scratch/rdu230/d3tales/high_throughput/runfiles/06IVBN/gaussian/tddft/energy/Gau-1208920.inp" -scrdir="/scratch/rdu230/d3tales/high_throughput/runfiles/06IVBN/gaussian/tddft/energy/"
 Entering Link 1 = /mnt/gpfs3_amd/share/apps/amd/gaussian/g16-A.03/g16/l1.exe PID=   1208921.
  
 Copyright (c) 1988,1990,1992,1993,1995,1998,2003,2009,2016,
            Gaussian, Inc.  All Rights Reserved.
  
 This is part of the Gaussian(R) 16 program.  It is based on
 the Gaussian(R) 09 system (copyright 2009, Gaussian, Inc.),
 the Gaussian(R) 03 system (copyright 2003, Gaussian, Inc.),
 the Gaussian(R) 98 system (copyright 1998, Gaussian, Inc.),
 the Gaussian(R) 94 system (copyright 1995, Gaussian, Inc.),
 the Gaussian 92(TM) system (copyright 1992, Gaussian, Inc.),
 the Gaussian 90(TM) system (copyright 1990, Gaussian, Inc.),
 the Gaussian 88(TM) system (copyright 1988, Gaussian, Inc.),
 the Gaussian 86(TM) system (copyright 1986, Carnegie Mellon
 University), and the Gaussian 82(TM) system (copyright 1983,
 Carnegie Mellon University). Gaussian is a federally registered
 trademark of Gaussian, Inc.
  
 This software contains proprietary and confidential information,
 including trade secrets, belonging to Gaussian, Inc.
  
 This software is provided under written license and may be
 used, copied, transmitted, or stored only in accord with that
 written license.
  
 The following legend is applicable only to US Government
 contracts under FAR:
  
                    RESTRICTED RIGHTS LEGEND
  
 Use, reproduction and disclosure by the US Government is
 subject to restrictions as set forth in subparagraphs (a)
 and (c) of the Commercial Computer Software - Restricted
 Rights clause in FAR 52.227-19.
  
 Gaussian, Inc.
 340 Quinnipiac St., Bldg. 40, Wallingford CT 06492
  
  
 ---------------------------------------------------------------
 Warning -- This program may not be used in any manner that
 competes with the business of Gaussian, Inc. or will provide
 assistance to any competitor of Gaussian, Inc.  The licensee
 of this program is prohibited from giving any competitor of
 Gaussian, Inc. access to this program.  By using this program,
 the user acknowledges that Gaussian, Inc. is engaged in the
 business of creating and licensing software in the field of
 computational chemistry and represents and warrants to the
 licensee that it is not a competitor of Gaussian, Inc. and that
 it will not use this program in any manner prohibited above.
 ---------------------------------------------------------------
  

 Cite this work as:
 Gaussian 16, Revision A.03,
 M. J. Frisch, G. W. Trucks, H. B. Schlegel, G. E. Scuseria, 
 M. A. Robb, J. R. Cheeseman, G. Scalmani, V. Barone, 
 G. A. Petersson, H. Nakatsuji, X. Li, M. Caricato, A. V. Marenich, 
 J. Bloino, B. G. Janesko, R. Gomperts, B. Mennucci, H. P. Hratchian, 
 J. V. Ortiz, A. F. Izmaylov, J. L. Sonnenberg, D. Williams-Young, 
 F. Ding, F. Lipparini, F. Egidi, J. Goings, B. Peng, A. Petrone, 
 T. Henderson, D. Ranasinghe, V. G. Zakrzewski, J. Gao, N. Rega, 
 G. Zheng, W. Liang, M. Hada, M. Ehara, K. Toyota, R. Fukuda, 
 J. Hasegawa, M. Ishida, T. Nakajima, Y. Honda, O. Kitao, H. Nakai, 
 T. Vreven, K. Throssell, J. A. Montgomery, Jr., J. E. Peralta, 
 F. Ogliaro, M. J. Bearpark, J. J. Heyd, E. N. Brothers, K. N. Kudin, 
 V. N. Staroverov, T. A. Keith, R. Kobayashi, J. Normand, 
 K. Raghavachari, A. P. Rendell, J. C. Burant, S. S. Iyengar, 
 J. Tomasi, M. Cossi, J. M. Millam, M. Klene, C. Adamo, R. Cammi, 
 J. W. Ochterski, R. L. Martin, K. Morokuma, O. Farkas, 
 J. B. Foresman, and D. J. Fox, Gaussian, Inc., Wallingford CT, 2016.
 
 ******************************************
 Gaussian 16:  AM64L-G16RevA.03 25-Dec-2016
                11-May-2022 
 ******************************************
 %chk=/scratch/rdu230/d3tales/high_throughput/runfiles//06IVBN/gaussian/tddft/ene
 rgy/singlet_triplet_cation1.chk
 %mem=48GB
 %nprocshared=16
 Will use up to   16 processors via shared memory.
 ----------------------------------------------------------------------
 #P LC-wHPBE/Def2SVP iop(3/107=0225700000, 3/108=0225700000) td=(50-50,
 nstates=15)
 ----------------------------------------------------------------------
 1/38=1,172=1/1;
 2/12=2,17=6,18=5,40=1/2;
 3/5=43,7=101,11=9,25=1,30=1,74=-71,107=225700000,108=225700000/1,2,3,8;
 4//1;
 5/5=2,38=5/2;
 8/6=1,10=1,108=15/1;
 9/41=15,42=1,48=2,70=2/14;
 6/7=2,8=2,9=2,10=2/1;
 99/5=1,9=1/99;
 Leave Link    1 at Wed May 11 07:12:09 2022, MaxMem=  6442450944 cpu:               4.6 elap:               0.3
 (Enter /mnt/gpfs3_amd/share/apps/amd/gaussian/g16-A.03/g16/l101.exe)
 ----------
 H13 C15 N2
 ----------
 Symbolic Z-matrix:
 Charge =  2 Multiplicity = 2
 N                    -2.574     3.0568    0.18456 
 C                    -1.32696   2.71951   0.03643 
 C                     0.00727   3.07041  -0.17253 
 C                    -0.3107    1.75219  -0.05193 
 N                     0.04996   0.44256  -0.03058 
 C                    -0.9723   -0.55729   0.02403 
 C                    -2.09552  -0.47106  -0.82324 
 C                    -3.06809  -1.46327  -0.74816 
 C                    -2.92979  -2.52627   0.16668 
 C                    -1.81251  -2.60221   1.0076 
 C                    -0.82527  -1.61983   0.94537 
 C                     1.40235   0.06264  -0.05661 
 C                     1.7515   -1.15451  -0.72094 
 C                     3.07734  -1.55675  -0.7533 
 C                     4.06412  -0.76459  -0.13929 
 C                     3.71836   0.44392   0.51667 
 C                     2.40182   0.86536   0.55668 
 H                    -3.3005    2.35623   0.35529 
 H                    -2.8582    4.04178   0.15799 
 H                     0.75282   3.86222  -0.31561 
 H                    -2.17415   0.32544  -1.57692 
 H                    -3.93491  -1.43061  -1.42171 
 H                    -3.70708  -3.30083   0.21958 
 H                    -1.7181   -3.42428   1.72922 
 H                     0.03102  -1.64231   1.63355 
 H                     0.97876  -1.72743  -1.25054 
 H                     3.35884  -2.47633  -1.28304 
 H                     5.11685  -1.07915  -0.17347 
 H                     4.49887   1.03626   1.01271 
 H                     2.1344    1.77409   1.11042 
 
 ITRead=  0  0  0  0  0  0  0  0  0  0  0  0  0  0  0  0  0  0  0  0
 ITRead=  0  0  0  0  0  0  0  0  0  0
 MicOpt= -1 -1 -1 -1 -1 -1 -1 -1 -1 -1 -1 -1 -1 -1 -1 -1 -1 -1 -1 -1
 MicOpt= -1 -1 -1 -1 -1 -1 -1 -1 -1 -1
 NAtoms=     30 NQM=       30 NQMF=       0 NMMI=      0 NMMIF=      0
                NMic=       0 NMicF=      0.
                    Isotopes and Nuclear Properties:
 (Nuclear quadrupole moments (NQMom) in fm**2, nuclear magnetic moments (NMagM)
  in nuclear magnetons)

  Atom         1           2           3           4           5           6           7           8           9          10
 IAtWgt=          14          12          12          12          14          12          12          12          12          12
 AtmWgt=  14.0030740  12.0000000  12.0000000  12.0000000  14.0030740  12.0000000  12.0000000  12.0000000  12.0000000  12.0000000
 NucSpn=           2           0           0           0           2           0           0           0           0           0
 AtZEff=  -0.0000000  -0.0000000  -0.0000000  -0.0000000  -0.0000000  -0.0000000  -0.0000000  -0.0000000  -0.0000000  -0.0000000
 NQMom=    2.0440000   0.0000000   0.0000000   0.0000000   2.0440000   0.0000000   0.0000000   0.0000000   0.0000000   0.0000000
 NMagM=    0.4037610   0.0000000   0.0000000   0.0000000   0.4037610   0.0000000   0.0000000   0.0000000   0.0000000   0.0000000
 AtZNuc=   7.0000000   6.0000000   6.0000000   6.0000000   7.0000000   6.0000000   6.0000000   6.0000000   6.0000000   6.0000000

  Atom        11          12          13          14          15          16          17          18          19          20
 IAtWgt=          12          12          12          12          12          12          12           1           1           1
 AtmWgt=  12.0000000  12.0000000  12.0000000  12.0000000  12.0000000  12.0000000  12.0000000   1.0078250   1.0078250   1.0078250
 NucSpn=           0           0           0           0           0           0           0           1           1           1
 AtZEff=  -0.0000000  -0.0000000  -0.0000000  -0.0000000  -0.0000000  -0.0000000  -0.0000000  -0.0000000  -0.0000000  -0.0000000
 NQMom=    0.0000000   0.0000000   0.0000000   0.0000000   0.0000000   0.0000000   0.0000000   0.0000000   0.0000000   0.0000000
 NMagM=    0.0000000   0.0000000   0.0000000   0.0000000   0.0000000   0.0000000   0.0000000   2.7928460   2.7928460   2.7928460
 AtZNuc=   6.0000000   6.0000000   6.0000000   6.0000000   6.0000000   6.0000000   6.0000000   1.0000000   1.0000000   1.0000000

  Atom        21          22          23          24          25          26          27          28          29          30
 IAtWgt=           1           1           1           1           1           1           1           1           1           1
 AtmWgt=   1.0078250   1.0078250   1.0078250   1.0078250   1.0078250   1.0078250   1.0078250   1.0078250   1.0078250   1.0078250
 NucSpn=           1           1           1           1           1           1           1           1           1           1
 AtZEff=  -0.0000000  -0.0000000  -0.0000000  -0.0000000  -0.0000000  -0.0000000  -0.0000000  -0.0000000  -0.0000000  -0.0000000
 NQMom=    0.0000000   0.0000000   0.0000000   0.0000000   0.0000000   0.0000000   0.0000000   0.0000000   0.0000000   0.0000000
 NMagM=    2.7928460   2.7928460   2.7928460   2.7928460   2.7928460   2.7928460   2.7928460   2.7928460   2.7928460   2.7928460
 AtZNuc=   1.0000000   1.0000000   1.0000000   1.0000000   1.0000000   1.0000000   1.0000000   1.0000000   1.0000000   1.0000000
 Leave Link  101 at Wed May 11 07:12:10 2022, MaxMem=  6442450944 cpu:               1.3 elap:               0.1
 (Enter /mnt/gpfs3_amd/share/apps/amd/gaussian/g16-A.03/g16/l202.exe)
                          Input orientation:                          
 ---------------------------------------------------------------------
 Center     Atomic      Atomic             Coordinates (Angstroms)
 Number     Number       Type             X           Y           Z
 ---------------------------------------------------------------------
      1          7           0       -2.574002    3.056798    0.184555
      2          6           0       -1.326958    2.719512    0.036430
      3          6           0        0.007265    3.070413   -0.172528
      4          6           0       -0.310700    1.752185   -0.051933
      5          7           0        0.049956    0.442556   -0.030581
      6          6           0       -0.972295   -0.557288    0.024026
      7          6           0       -2.095518   -0.471064   -0.823239
      8          6           0       -3.068088   -1.463270   -0.748155
      9          6           0       -2.929794   -2.526270    0.166683
     10          6           0       -1.812505   -2.602211    1.007596
     11          6           0       -0.825265   -1.619832    0.945373
     12          6           0        1.402348    0.062636   -0.056606
     13          6           0        1.751495   -1.154509   -0.720943
     14          6           0        3.077336   -1.556752   -0.753303
     15          6           0        4.064120   -0.764585   -0.139293
     16          6           0        3.718359    0.443921    0.516670
     17          6           0        2.401815    0.865356    0.556678
     18          1           0       -3.300503    2.356233    0.355291
     19          1           0       -2.858199    4.041775    0.157988
     20          1           0        0.752823    3.862221   -0.315605
     21          1           0       -2.174150    0.325442   -1.576924
     22          1           0       -3.934907   -1.430605   -1.421712
     23          1           0       -3.707077   -3.300833    0.219576
     24          1           0       -1.718101   -3.424280    1.729215
     25          1           0        0.031017   -1.642314    1.633546
     26          1           0        0.978758   -1.727429   -1.250542
     27          1           0        3.358839   -2.476329   -1.283045
     28          1           0        5.116849   -1.079150   -0.173469
     29          1           0        4.498875    1.036258    1.012711
     30          1           0        2.134402    1.774092    1.110425
 ---------------------------------------------------------------------
                    Distance matrix (angstroms):
                    1          2          3          4          5
     1  N    0.000000
     2  C    1.300316   0.000000
     3  C    2.605884   1.395330   0.000000
     4  C    2.623066   1.405813   1.361385   0.000000
     5  N    3.710216   2.661750   2.632034   1.358550   0.000000
     6  C    3.956369   3.295961   3.762763   2.403569   1.430967
     7  C    3.700055   3.392564   4.169794   2.953527   2.462939
     8  C    4.641668   4.598127   5.508487   4.292676   3.724149
     9  C    5.594422   5.486737   6.329632   5.021217   4.210909
    10  C    5.769026   5.431358   6.073131   4.726392   3.717147
    11  C    5.050524   4.461813   4.892975   3.553856   2.443756
    12  C    4.983425   3.810086   3.317592   2.406061   1.404984
    13  C    6.104503   5.005849   4.603592   3.626168   2.433609
    14  C    7.355409   6.189339   5.583305   4.787460   3.699269
    15  C    7.666323   6.421334   5.582686   5.047852   4.193152
    16  C    6.821381   5.555553   4.598442   4.274129   3.708998
    17  C    5.449738   4.196701   3.335849   2.917981   2.460665
    18  H    1.023595   2.031877   3.424905   3.077276   3.877710
    19  H    1.025502   2.026784   3.043628   3.431624   4.631123
    20  H    3.459282   2.399000   1.096945   2.377574   3.502766
    21  H    3.274599   3.008690   3.777005   2.798864   2.711372
    22  H    4.956707   5.113809   6.112311   5.014112   4.617695
    23  H    6.457907   6.476346   7.385314   6.094431   5.309504
    24  H    6.717359   6.384723   6.983878   5.652350   4.601666
    25  H    5.564832   4.839463   5.047005   3.805290   2.667651
    26  H    6.129473   5.171838   5.012504   3.899626   2.657031
    27  H    8.244267   7.120005   6.575153   5.732494   4.586640
    28  H    8.739762   7.483084   6.582304   6.122868   5.292392
    29  H    7.402298   6.142214   5.071207   4.977754   4.608017
    30  H    4.967055   3.745437   2.801987   2.707412   2.723931
                    6          7          8          9         10
     6  C    0.000000
     7  C    1.409582   0.000000
     8  C    2.410273   1.391403   0.000000
     9  C    2.780116   2.428957   1.409263   0.000000
    10  C    2.419726   2.823799   2.440561   1.400442   0.000000
    11  C    1.414036   2.461950   2.814748   2.420130   1.394124
    12  C    2.455552   3.620446   4.774037   5.051707   4.309201
    13  C    2.886292   3.908589   4.829540   4.958233   4.217320
    14  C    4.242957   5.286022   6.146137   6.154019   5.301348
    15  C    5.043324   6.204440   7.192167   7.218863   6.263142
    16  C    4.821551   6.036035   7.161915   7.289888   6.333276
    17  C    3.700304   4.890419   6.086454   6.330978   5.476116
    18  H    3.744181   3.291585   3.982488   4.900187   5.217835
    19  H    4.972521   4.680834   5.583070   6.568441   6.779223
    20  H    4.756411   5.210384   6.568662   7.389661   7.079594
    21  H    2.187855   1.099384   2.164596   3.426868   3.921949
    22  H    3.410266   2.159222   1.098235   2.175714   3.432024
    23  H    3.878700   3.419383   2.172889   1.098597   2.167591
    24  H    3.418119   3.921600   3.435897   2.171665   1.097927
    25  H    2.185056   3.453950   3.912673   3.420448   2.170666
    26  H    2.607750   3.348464   4.086458   4.233610   3.695346
    27  H    4.914252   5.829453   6.528230   6.453767   5.657356
    28  H    6.114656   7.267063   8.214074   8.182807   7.192397
    29  H    5.783648   7.009190   8.161325   8.282058   7.285053
    30  H    4.033257   5.164495   6.403182   6.710428   5.894122
                   11         12         13         14         15
    11  C    0.000000
    12  C    2.965960   0.000000
    13  C    3.103680   1.429926   0.000000
    14  C    4.256733   2.431746   1.385894   0.000000
    15  C    5.080751   2.788577   2.416318   1.406513   0.000000
    16  C    5.008731   2.416181   2.820500   2.454880   1.417859
    17  C    4.091612   1.421060   2.476911   2.835311   2.429885
    18  H    4.720603   5.248529   6.245500   7.564209   8.013850
    19  H    6.066843   5.833683   7.001655   8.210026   8.432554
    20  H    5.842374   3.863394   5.131201   5.912716   5.692373
    21  H    3.459128   3.895096   4.281781   5.639070   6.493917
    22  H    3.912643   5.707852   5.736068   7.045157   8.128506
    23  H    3.414291   6.123351   5.940311   7.072240   8.182472
    24  H    2.160462   5.008487   4.815935   5.713735   6.633203
    25  H    1.098775   2.764782   2.956623   3.870973   4.492136
    26  H    2.843962   2.192999   1.098105   2.163425   3.417807
    27  H    4.817277   3.431961   2.155626   1.097949   2.176157
    28  H    6.070656   3.887782   3.410427   2.173459   1.099253
    29  H    5.950279   3.417581   3.918305   3.444311   2.181550
    30  H    4.506173   2.197031   3.475231   3.931555   3.424980
                   16         17         18         19         20
    16  C    0.000000
    17  C    1.382930   0.000000
    18  H    7.276497   5.897432   0.000000
    19  H    7.504953   6.157624   1.753743   0.000000
    20  H    4.601289   3.530050   4.375792   3.646369   0.000000
    21  H    6.254505   5.077718   3.020966   4.158001   4.760977
    22  H    8.114410   7.024209   4.230881   5.796697   7.156276
    23  H    8.321571   7.401981   5.673281   7.391771   8.454967
    24  H    6.781470   6.062139   6.148658   7.714308   7.961146
    25  H    4.381356   3.615071   5.359229   6.544747   5.883885
    26  H    3.917041   3.466074   6.129198   7.070354   5.671802
    27  H    3.449071   3.932853   8.389555   9.122161   6.921306
    28  H    2.179865   3.418425   9.106770   9.483413   6.594094
    29  H    1.098237   2.152867   7.937558   7.993136   4.876822
    30  H    2.151934   1.097245   5.517908   5.565572   2.881424
                   21         22         23         24         25
    21  H    0.000000
    22  H    2.491597   0.000000
    23  H    4.327487   2.498697   0.000000
    24  H    5.019856   4.337892   2.500055   0.000000
    25  H    4.363707   5.010786   4.327048   2.498794   0.000000
    26  H    3.776458   4.925597   5.156927   4.362488   3.037009
    27  H    6.208885   7.369634   7.270822   5.978933   4.502942
    28  H    7.556536   9.144174   9.107800   7.472375   5.426614
    29  H    7.193103   9.118142   9.315421   7.685087   5.246136
    30  H    5.280535   7.315621   7.789182   6.499827   4.045950
                   26         27         28         29         30
    26  H    0.000000
    27  H    2.495334   0.000000
    28  H    4.324829   2.504769   0.000000
    29  H    5.015127   4.348384   2.502772   0.000000
    30  H    4.378393   5.029316   4.322541   2.478846   0.000000
 Stoichiometry    C15H13N2(2+,2)
 Framework group  C1[X(C15H13N2)]
 Deg. of freedom    84
 Full point group                 C1      NOp   1
 Largest Abelian subgroup         C1      NOp   1
 Largest concise Abelian subgroup C1      NOp   1
                         Standard orientation:                         
 ---------------------------------------------------------------------
 Center     Atomic      Atomic             Coordinates (Angstroms)
 Number     Number       Type             X           Y           Z
 ---------------------------------------------------------------------
      1          7           0       -2.574002    3.056798    0.184555
      2          6           0       -1.326958    2.719512    0.036430
      3          6           0        0.007265    3.070413   -0.172528
      4          6           0       -0.310700    1.752185   -0.051933
      5          7           0        0.049956    0.442556   -0.030581
      6          6           0       -0.972295   -0.557288    0.024026
      7          6           0       -2.095518   -0.471064   -0.823239
      8          6           0       -3.068088   -1.463270   -0.748155
      9          6           0       -2.929794   -2.526270    0.166683
     10          6           0       -1.812505   -2.602211    1.007596
     11          6           0       -0.825265   -1.619832    0.945373
     12          6           0        1.402348    0.062636   -0.056606
     13          6           0        1.751495   -1.154509   -0.720943
     14          6           0        3.077336   -1.556752   -0.753303
     15          6           0        4.064120   -0.764585   -0.139293
     16          6           0        3.718359    0.443921    0.516670
     17          6           0        2.401815    0.865356    0.556678
     18          1           0       -3.300503    2.356233    0.355291
     19          1           0       -2.858199    4.041775    0.157988
     20          1           0        0.752823    3.862221   -0.315605
     21          1           0       -2.174150    0.325442   -1.576924
     22          1           0       -3.934907   -1.430605   -1.421712
     23          1           0       -3.707077   -3.300833    0.219576
     24          1           0       -1.718101   -3.424280    1.729215
     25          1           0        0.031017   -1.642314    1.633546
     26          1           0        0.978758   -1.727429   -1.250542
     27          1           0        3.358839   -2.476329   -1.283045
     28          1           0        5.116849   -1.079151   -0.173469
     29          1           0        4.498875    1.036257    1.012711
     30          1           0        2.134402    1.774092    1.110425
 ---------------------------------------------------------------------
 Rotational constants (GHZ):           0.6224659           0.4055685           0.2649592
 Leave Link  202 at Wed May 11 07:12:10 2022, MaxMem=  6442450944 cpu:               0.1 elap:               0.0
 (Enter /mnt/gpfs3_amd/share/apps/amd/gaussian/g16-A.03/g16/l301.exe)
 Standard basis: def2SVP (5D, 7F)
 Ernie: Thresh=  0.10000D-02 Tol=  0.10000D-05 Strict=F.
 There are   320 symmetry adapted cartesian basis functions of A   symmetry.
 There are   303 symmetry adapted basis functions of A   symmetry.
   303 basis functions,   516 primitive gaussians,   320 cartesian basis functions
    58 alpha electrons       57 beta electrons
       nuclear repulsion energy      1083.6294984006 Hartrees.
 IExCor=33909 DFT=T Ex+Corr=LC-wHPBE ExCW=0 ScaHFX=  1.000000
 ScaDFX=  1.000000  1.000000  1.000000  1.000000 ScalE2=  1.000000  1.000000
 IRadAn=      5 IRanWt=     -1 IRanGd=            0 ICorTp=0 IEmpDi=  4
 HFx  wShort=  0.000000 wLong=  0.225700 cFull=  0.000000 cShort=  0.000000 cLong=  1.000000
 DFx  wShort=  0.000000 wLong=  0.225700 cFull=  0.000000 cShort=  1.000000 cLong=  0.000000
 NAtoms=   30 NActive=   30 NUniq=   30 SFac= 1.00D+00 NAtFMM=   60 NAOKFM=F Big=F
 Integral buffers will be    131072 words long.
 Raffenetti 2 integral format.
 Two-electron integral symmetry is turned on.
 Leave Link  301 at Wed May 11 07:12:10 2022, MaxMem=  6442450944 cpu:               0.3 elap:               0.0
 (Enter /mnt/gpfs3_amd/share/apps/amd/gaussian/g16-A.03/g16/l302.exe)
 NPDir=0 NMtPBC=     1 NCelOv=     1 NCel=       1 NClECP=     1 NCelD=      1
         NCelK=      1 NCelE2=     1 NClLst=     1 CellRange=     0.0.
 One-electron integrals computed using PRISM.
 One-electron integral symmetry used in STVInt
   1 Symmetry operations used in ECPInt.
 ECPInt:  NShTT=   10011 NPrTT=   36575 LenC2=    9406 LenP2D=   24568.
 LDataN:  DoStor=T MaxTD1= 4 Len=   56
 NBasis=   303 RedAO= T EigKep=  2.88D-04  NBF=   303
 NBsUse=   303 1.00D-06 EigRej= -1.00D+00 NBFU=   303
 Precomputing XC quadrature grid using
 IXCGrd= 4 IRadAn=           5 IRanWt=          -1 IRanGd=           0 AccXCQ= 0.00D+00.
 Generated NRdTot=       0 NPtTot=           0 NUsed=           0 NTot=          32
 NSgBfM=   319   319   319   319   319 MxSgAt=    30 MxSgA2=    30.
 Leave Link  302 at Wed May 11 07:12:10 2022, MaxMem=  6442450944 cpu:              10.1 elap:               0.7
 (Enter /mnt/gpfs3_amd/share/apps/amd/gaussian/g16-A.03/g16/l303.exe)
 DipDrv:  MaxL=1.
 Leave Link  303 at Wed May 11 07:12:10 2022, MaxMem=  6442450944 cpu:               0.5 elap:               0.0
 (Enter /mnt/gpfs3_amd/share/apps/amd/gaussian/g16-A.03/g16/l308.exe)
 Leave Link  308 at Wed May 11 07:12:10 2022, MaxMem=  6442450944 cpu:               0.5 elap:               0.0
 (Enter /mnt/gpfs3_amd/share/apps/amd/gaussian/g16-A.03/g16/l401.exe)
 ExpMin= 1.22D-01 ExpMax= 1.71D+03 ExpMxC= 2.58D+02 IAcc=3 IRadAn=         5 AccDes= 0.00D+00
 Harris functional with IExCor=33909 and IRadAn=       5 diagonalized for initial guess.
 HarFok:  IExCor=33909 AccDes= 0.00D+00 IRadAn=         5 IDoV= 1 UseB2=F ITyADJ=14
 ICtDFT=  3500011 ScaDFX=  1.000000  1.000000  1.000000  1.000000
 FoFCou: FMM=F IPFlag=           0 FMFlag=      100000 FMFlg1=           0
         NFxFlg=           0 DoJE=T BraDBF=F KetDBF=T FulRan=T
         wScrn=  0.000000 ICntrl=       500 IOpCl=  0 I1Cent=   200000004 NGrid=           0
         NMat0=    1 NMatS0=      1 NMatT0=    0 NMatD0=    1 NMtDS0=    0 NMtDT0=    0
 Petite list used in FoFCou.
 Harris En= -673.522346551002    
 JPrj=0 DoOrth=F DoCkMO=F.
 Initial guess <Sx>= 0.0000 <Sy>= 0.0000 <Sz>= 0.5000 <S**2>= 0.7500 S= 0.5000
 Leave Link  401 at Wed May 11 07:12:14 2022, MaxMem=  6442450944 cpu:              51.4 elap:               3.4
 (Enter /mnt/gpfs3_amd/share/apps/amd/gaussian/g16-A.03/g16/l502.exe)
 Integral symmetry usage will be decided dynamically.
 UHF open shell SCF:
 Using DIIS extrapolation, IDIIS=  1040.
 NGot=  6442450944 LenX=  6442237618 LenY=  6442134777
 Requested convergence on RMS density matrix=1.00D-08 within 128 cycles.
 Requested convergence on MAX density matrix=1.00D-06.
 Requested convergence on             energy=1.00D-06.
 No special actions if energy rises.
 Fock matrices will be formed incrementally for  20 cycles.
 Integral accuracy reduced to 1.0D-05 until final iterations.

 Cycle   1  Pass 0  IDiag  1:
 FoFJK:  IHMeth= 1 ICntrl=       0 DoSepK=T KAlg= 0 I1Cent=           0 FoldK=F
 IRaf=         1 NMat=       1 IRICut=       1 DoRegI=T DoRafI=F ISym2E= 0 IDoP0=0 IntGTp=1.
 FoFCou: FMM=F IPFlag=           0 FMFlag=      100000 FMFlg1=           0
         NFxFlg=           0 DoJE=T BraDBF=F KetDBF=F FulRan=T
         wScrn=  0.000000 ICntrl=       500 IOpCl=  0 I1Cent=           0 NGrid=           0
         NMat0=    1 NMatS0=      1 NMatT0=    0 NMatD0=    1 NMtDS0=    0 NMtDT0=    0
 Symmetry not used in FoFCou.
 E= -686.881449165151    
 DIIS: error= 2.88D-02 at cycle   1 NSaved=   1.
 NSaved= 1 IEnMin= 1 EnMin= -686.881449165151     IErMin= 1 ErrMin= 2.88D-02
 ErrMax= 2.88D-02  0.00D+00 EMaxC= 1.00D-01 BMatC= 8.37D-01 BMatP= 8.37D-01
 IDIUse=3 WtCom= 7.12D-01 WtEn= 2.88D-01
 Coeff-Com:  0.100D+01
 Coeff-En:   0.100D+01
 Coeff:      0.100D+01
 Gap=     0.466 Goal=   None    Shift=    0.000
 Gap=     0.100 Goal=   None    Shift=    0.000
 GapD=    0.100 DampG=0.500 DampE=0.500 DampFc=0.2500 IDamp=-1.
 Damping current iteration by 2.50D-01
 RMSDP=4.80D-03 MaxDP=1.88D-01              OVMax= 4.17D-01

 Cycle   2  Pass 0  IDiag  1:
 RMSU=  1.17D-03    CP:  9.88D-01
 E= -686.966602792353     Delta-E=       -0.085153627203 Rises=F Damp=T
 DIIS: error= 9.95D-03 at cycle   2 NSaved=   2.
 NSaved= 2 IEnMin= 2 EnMin= -686.966602792353     IErMin= 2 ErrMin= 9.95D-03
 ErrMax= 9.95D-03  0.00D+00 EMaxC= 1.00D-01 BMatC= 1.72D-01 BMatP= 8.37D-01
 IDIUse=3 WtCom= 9.01D-01 WtEn= 9.95D-02
 Coeff-Com: -0.587D+00 0.159D+01
 Coeff-En:   0.000D+00 0.100D+01
 Coeff:     -0.529D+00 0.153D+01
 Gap=     0.318 Goal=   None    Shift=    0.000
 Gap=     0.167 Goal=   None    Shift=    0.000
 RMSDP=1.94D-03 MaxDP=3.71D-02 DE=-8.52D-02 OVMax= 2.46D-01

 Cycle   3  Pass 0  IDiag  1:
 RMSU=  1.32D-03    CP:  9.56D-01  2.08D+00
 E= -687.120004991854     Delta-E=       -0.153402199500 Rises=F Damp=F
 DIIS: error= 2.99D-03 at cycle   3 NSaved=   3.
 NSaved= 3 IEnMin= 3 EnMin= -687.120004991854     IErMin= 3 ErrMin= 2.99D-03
 ErrMax= 2.99D-03  0.00D+00 EMaxC= 1.00D-01 BMatC= 2.55D-02 BMatP= 1.72D-01
 IDIUse=3 WtCom= 9.70D-01 WtEn= 2.99D-02
 Coeff-Com: -0.231D+00 0.587D+00 0.644D+00
 Coeff-En:   0.000D+00 0.000D+00 0.100D+01
 Coeff:     -0.224D+00 0.569D+00 0.655D+00
 Gap=     0.305 Goal=   None    Shift=    0.000
 Gap=     0.165 Goal=   None    Shift=    0.000
 RMSDP=4.03D-04 MaxDP=1.47D-02 DE=-1.53D-01 OVMax= 3.16D-02

 Cycle   4  Pass 0  IDiag  1:
 RMSU=  3.84D-04    CP:  9.58D-01  2.06D+00  9.13D-01
 E= -687.126968998517     Delta-E=       -0.006964006664 Rises=F Damp=F
 DIIS: error= 2.40D-03 at cycle   4 NSaved=   4.
 NSaved= 4 IEnMin= 4 EnMin= -687.126968998517     IErMin= 4 ErrMin= 2.40D-03
 ErrMax= 2.40D-03  0.00D+00 EMaxC= 1.00D-01 BMatC= 3.22D-03 BMatP= 2.55D-02
 IDIUse=3 WtCom= 9.76D-01 WtEn= 2.40D-02
 Coeff-Com: -0.686D-02 0.413D-01 0.246D+00 0.720D+00
 Coeff-En:   0.000D+00 0.000D+00 0.000D+00 0.100D+01
 Coeff:     -0.670D-02 0.403D-01 0.240D+00 0.727D+00
 Gap=     0.302 Goal=   None    Shift=    0.000
 Gap=     0.171 Goal=   None    Shift=    0.000
 RMSDP=1.57D-04 MaxDP=4.26D-03 DE=-6.96D-03 OVMax= 2.02D-02

 Cycle   5  Pass 0  IDiag  1:
 RMSU=  1.24D-04    CP:  9.57D-01  2.03D+00  9.75D-01  9.28D-01
 E= -687.128232132245     Delta-E=       -0.001263133727 Rises=F Damp=F
 DIIS: error= 6.89D-04 at cycle   5 NSaved=   5.
 NSaved= 5 IEnMin= 5 EnMin= -687.128232132245     IErMin= 5 ErrMin= 6.89D-04
 ErrMax= 6.89D-04  0.00D+00 EMaxC= 1.00D-01 BMatC= 4.19D-04 BMatP= 3.22D-03
 IDIUse=3 WtCom= 9.93D-01 WtEn= 6.89D-03
 Coeff-Com:  0.265D-01-0.513D-01 0.941D-02 0.234D+00 0.781D+00
 Coeff-En:   0.000D+00 0.000D+00 0.000D+00 0.000D+00 0.100D+01
 Coeff:      0.263D-01-0.510D-01 0.935D-02 0.232D+00 0.783D+00
 Gap=     0.305 Goal=   None    Shift=    0.000
 Gap=     0.173 Goal=   None    Shift=    0.000
 RMSDP=7.68D-05 MaxDP=2.75D-03 DE=-1.26D-03 OVMax= 1.23D-02

 Cycle   6  Pass 0  IDiag  1:
 RMSU=  5.30D-05    CP:  9.56D-01  2.02D+00  9.87D-01  1.04D+00  1.23D+00
 E= -687.128534275739     Delta-E=       -0.000302143495 Rises=F Damp=F
 DIIS: error= 5.04D-04 at cycle   6 NSaved=   6.
 NSaved= 6 IEnMin= 6 EnMin= -687.128534275739     IErMin= 6 ErrMin= 5.04D-04
 ErrMax= 5.04D-04  0.00D+00 EMaxC= 1.00D-01 BMatC= 1.13D-04 BMatP= 4.19D-04
 IDIUse=3 WtCom= 9.95D-01 WtEn= 5.04D-03
 Coeff-Com:  0.142D-01-0.317D-01-0.546D-01-0.949D-01 0.266D+00 0.901D+00
 Coeff-En:   0.000D+00 0.000D+00 0.000D+00 0.000D+00 0.000D+00 0.100D+01
 Coeff:      0.141D-01-0.315D-01-0.543D-01-0.944D-01 0.265D+00 0.902D+00
 Gap=     0.306 Goal=   None    Shift=    0.000
 Gap=     0.174 Goal=   None    Shift=    0.000
 RMSDP=5.67D-05 MaxDP=2.34D-03 DE=-3.02D-04 OVMax= 9.36D-03

 Cycle   7  Pass 0  IDiag  1:
 RMSU=  2.95D-05    CP:  9.56D-01  2.00D+00  9.93D-01  1.09D+00  1.52D+00
                    CP:  1.35D+00
 E= -687.128678761682     Delta-E=       -0.000144485943 Rises=F Damp=F
 DIIS: error= 2.58D-04 at cycle   7 NSaved=   7.
 NSaved= 7 IEnMin= 7 EnMin= -687.128678761682     IErMin= 7 ErrMin= 2.58D-04
 ErrMax= 2.58D-04  0.00D+00 EMaxC= 1.00D-01 BMatC= 3.25D-05 BMatP= 1.13D-04
 IDIUse=3 WtCom= 9.97D-01 WtEn= 2.58D-03
 Coeff-Com: -0.157D-02 0.409D-02-0.115D-01-0.708D-01-0.133D+00 0.261D+00
 Coeff-Com:  0.951D+00
 Coeff-En:   0.000D+00 0.000D+00 0.000D+00 0.000D+00 0.000D+00 0.000D+00
 Coeff-En:   0.100D+01
 Coeff:     -0.156D-02 0.408D-02-0.114D-01-0.706D-01-0.133D+00 0.261D+00
 Coeff:      0.951D+00
 Gap=     0.306 Goal=   None    Shift=    0.000
 Gap=     0.174 Goal=   None    Shift=    0.000
 RMSDP=3.51D-05 MaxDP=1.37D-03 DE=-1.44D-04 OVMax= 6.38D-03

 Cycle   8  Pass 0  IDiag  1:
 RMSU=  1.49D-05    CP:  9.56D-01  2.00D+00  9.92D-01  1.12D+00  1.66D+00
                    CP:  1.73D+00  1.47D+00
 E= -687.128732429052     Delta-E=       -0.000053667370 Rises=F Damp=F
 DIIS: error= 1.65D-04 at cycle   8 NSaved=   8.
 NSaved= 8 IEnMin= 8 EnMin= -687.128732429052     IErMin= 8 ErrMin= 1.65D-04
 ErrMax= 1.65D-04  0.00D+00 EMaxC= 1.00D-01 BMatC= 1.02D-05 BMatP= 3.25D-05
 IDIUse=3 WtCom= 9.98D-01 WtEn= 1.65D-03
 Coeff-Com: -0.230D-02 0.602D-02 0.100D-01 0.633D-02-0.107D+00-0.152D+00
 Coeff-Com:  0.194D+00 0.104D+01
 Coeff-En:   0.000D+00 0.000D+00 0.000D+00 0.000D+00 0.000D+00 0.000D+00
 Coeff-En:   0.000D+00 0.100D+01
 Coeff:     -0.230D-02 0.601D-02 0.100D-01 0.632D-02-0.107D+00-0.152D+00
 Coeff:      0.193D+00 0.104D+01
 Gap=     0.306 Goal=   None    Shift=    0.000
 Gap=     0.174 Goal=   None    Shift=    0.000
 RMSDP=2.56D-05 MaxDP=9.87D-04 DE=-5.37D-05 OVMax= 5.23D-03

 Cycle   9  Pass 0  IDiag  1:
 RMSU=  8.80D-06    CP:  9.56D-01  2.00D+00  9.91D-01  1.13D+00  1.75D+00
                    CP:  1.96D+00  1.94D+00  1.63D+00
 E= -687.128757138306     Delta-E=       -0.000024709254 Rises=F Damp=F
 DIIS: error= 1.20D-04 at cycle   9 NSaved=   9.
 NSaved= 9 IEnMin= 9 EnMin= -687.128757138306     IErMin= 9 ErrMin= 1.20D-04
 ErrMax= 1.20D-04  0.00D+00 EMaxC= 1.00D-01 BMatC= 3.93D-06 BMatP= 1.02D-05
 IDIUse=3 WtCom= 9.99D-01 WtEn= 1.20D-03
 Coeff-Com:  0.709D-03-0.119D-02 0.744D-02 0.332D-01 0.399D-01-0.129D+00
 Coeff-Com: -0.428D+00 0.209D+00 0.127D+01
 Coeff-En:   0.000D+00 0.000D+00 0.000D+00 0.000D+00 0.000D+00 0.000D+00
 Coeff-En:   0.000D+00 0.000D+00 0.100D+01
 Coeff:      0.708D-03-0.118D-02 0.743D-02 0.331D-01 0.399D-01-0.129D+00
 Coeff:     -0.427D+00 0.209D+00 0.127D+01
 Gap=     0.306 Goal=   None    Shift=    0.000
 Gap=     0.174 Goal=   None    Shift=    0.000
 RMSDP=2.36D-05 MaxDP=8.18D-04 DE=-2.47D-05 OVMax= 5.24D-03

 Cycle  10  Pass 0  IDiag  1:
 RMSU=  5.42D-06    CP:  9.56D-01  2.00D+00  9.91D-01  1.14D+00  1.80D+00
                    CP:  2.14D+00  2.36D+00  2.48D+00  1.82D+00
 E= -687.128770835376     Delta-E=       -0.000013697070 Rises=F Damp=F
 DIIS: error= 6.95D-05 at cycle  10 NSaved=  10.
 NSaved=10 IEnMin=10 EnMin= -687.128770835376     IErMin=10 ErrMin= 6.95D-05
 ErrMax= 6.95D-05  0.00D+00 EMaxC= 1.00D-01 BMatC= 1.01D-06 BMatP= 3.93D-06
 IDIUse=1 WtCom= 1.00D+00 WtEn= 0.00D+00
 Coeff-Com:  0.753D-03-0.161D-02 0.387D-03 0.881D-02 0.387D-01 0.313D-03
 Coeff-Com: -0.188D+00-0.175D+00 0.393D+00 0.923D+00
 Coeff:      0.753D-03-0.161D-02 0.387D-03 0.881D-02 0.387D-01 0.313D-03
 Coeff:     -0.188D+00-0.175D+00 0.393D+00 0.923D+00
 Gap=     0.306 Goal=   None    Shift=    0.000
 Gap=     0.174 Goal=   None    Shift=    0.000
 RMSDP=9.47D-06 MaxDP=3.48D-04 DE=-1.37D-05 OVMax= 2.28D-03

 Initial convergence to 1.0D-05 achieved.  Increase integral accuracy.
 Cycle  11  Pass 1  IDiag  1:
 E= -687.128776662757     Delta-E=       -0.000005827380 Rises=F Damp=F
 DIIS: error= 1.21D-04 at cycle   1 NSaved=   1.
 NSaved= 1 IEnMin= 1 EnMin= -687.128776662757     IErMin= 1 ErrMin= 1.21D-04
 ErrMax= 1.21D-04  0.00D+00 EMaxC= 1.00D-01 BMatC= 6.27D-06 BMatP= 6.27D-06
 IDIUse=3 WtCom= 9.99D-01 WtEn= 1.21D-03
 Coeff-Com:  0.100D+01
 Coeff-En:   0.100D+01
 Coeff:      0.100D+01
 Gap=     0.306 Goal=   None    Shift=    0.000
 Gap=     0.174 Goal=   None    Shift=    0.000
 RMSDP=9.47D-06 MaxDP=3.48D-04 DE=-5.83D-06 OVMax= 7.31D-04

 Cycle  12  Pass 1  IDiag  1:
 RMSU=  7.88D-05    CP:  1.00D+00
 E= -687.128778668365     Delta-E=       -0.000002005608 Rises=F Damp=F
 DIIS: error= 3.78D-05 at cycle   2 NSaved=   2.
 NSaved= 2 IEnMin= 2 EnMin= -687.128778668365     IErMin= 2 ErrMin= 3.78D-05
 ErrMax= 3.78D-05  0.00D+00 EMaxC= 1.00D-01 BMatC= 2.34D-07 BMatP= 6.27D-06
 IDIUse=1 WtCom= 1.00D+00 WtEn= 0.00D+00
 Coeff-Com: -0.226D-01 0.102D+01
 Coeff:     -0.226D-01 0.102D+01
 Gap=     0.306 Goal=   None    Shift=    0.000
 Gap=     0.174 Goal=   None    Shift=    0.000
 RMSDP=6.03D-06 MaxDP=1.46D-04 DE=-2.01D-06 OVMax= 6.09D-04

 Cycle  13  Pass 1  IDiag  1:
 RMSU=  2.80D-06    CP:  1.00D+00  1.07D+00
 E= -687.128779071943     Delta-E=       -0.000000403578 Rises=F Damp=F
 DIIS: error= 3.04D-05 at cycle   3 NSaved=   3.
 NSaved= 3 IEnMin= 3 EnMin= -687.128779071943     IErMin= 3 ErrMin= 3.04D-05
 ErrMax= 3.04D-05  0.00D+00 EMaxC= 1.00D-01 BMatC= 2.44D-07 BMatP= 2.34D-07
 IDIUse=1 WtCom= 1.00D+00 WtEn= 0.00D+00
 Coeff-Com: -0.326D-01 0.535D+00 0.497D+00
 Coeff:     -0.326D-01 0.535D+00 0.497D+00
 Gap=     0.306 Goal=   None    Shift=    0.000
 Gap=     0.174 Goal=   None    Shift=    0.000
 RMSDP=1.24D-06 MaxDP=4.61D-05 DE=-4.04D-07 OVMax= 2.48D-04

 Cycle  14  Pass 1  IDiag  1:
 RMSU=  1.10D-06    CP:  1.00D+00  1.07D+00  1.18D+00
 E= -687.128779246983     Delta-E=       -0.000000175039 Rises=F Damp=F
 DIIS: error= 2.78D-05 at cycle   4 NSaved=   4.
 NSaved= 4 IEnMin= 4 EnMin= -687.128779246983     IErMin= 4 ErrMin= 2.78D-05
 ErrMax= 2.78D-05  0.00D+00 EMaxC= 1.00D-01 BMatC= 7.13D-08 BMatP= 2.34D-07
 IDIUse=1 WtCom= 1.00D+00 WtEn= 0.00D+00
 Coeff-Com:  0.205D-01-0.627D+00-0.264D+00 0.187D+01
 Coeff:      0.205D-01-0.627D+00-0.264D+00 0.187D+01
 Gap=     0.306 Goal=   None    Shift=    0.000
 Gap=     0.174 Goal=   None    Shift=    0.000
 RMSDP=3.47D-06 MaxDP=1.25D-04 DE=-1.75D-07 OVMax= 9.16D-04

 Cycle  15  Pass 1  IDiag  1:
 RMSU=  1.14D-06    CP:  1.00D+00  1.08D+00  2.16D+00  2.58D+00
 E= -687.128779617561     Delta-E=       -0.000000370578 Rises=F Damp=F
 DIIS: error= 1.70D-05 at cycle   5 NSaved=   5.
 NSaved= 5 IEnMin= 5 EnMin= -687.128779617561     IErMin= 5 ErrMin= 1.70D-05
 ErrMax= 1.70D-05  0.00D+00 EMaxC= 1.00D-01 BMatC= 5.27D-08 BMatP= 7.13D-08
 IDIUse=1 WtCom= 1.00D+00 WtEn= 0.00D+00
 Coeff-Com:  0.368D-01-0.830D+00-0.539D+00 0.148D+01 0.856D+00
 Coeff:      0.368D-01-0.830D+00-0.539D+00 0.148D+01 0.856D+00
 Gap=     0.306 Goal=   None    Shift=    0.000
 Gap=     0.174 Goal=   None    Shift=    0.000
 RMSDP=3.06D-06 MaxDP=1.15D-04 DE=-3.71D-07 OVMax= 8.33D-04

 Cycle  16  Pass 1  IDiag  1:
 RMSU=  1.41D-06    CP:  1.00D+00  1.08D+00  2.98D+00  3.00D+00  1.73D+00
 E= -687.128779801337     Delta-E=       -0.000000183776 Rises=F Damp=F
 DIIS: error= 8.28D-06 at cycle   6 NSaved=   6.
 NSaved= 6 IEnMin= 6 EnMin= -687.128779801337     IErMin= 6 ErrMin= 8.28D-06
 ErrMax= 8.28D-06  0.00D+00 EMaxC= 1.00D-01 BMatC= 9.34D-09 BMatP= 5.27D-08
 IDIUse=1 WtCom= 1.00D+00 WtEn= 0.00D+00
 Coeff-Com:  0.573D-02-0.807D-01-0.105D+00-0.756D-01 0.264D+00 0.991D+00
 Coeff:      0.573D-02-0.807D-01-0.105D+00-0.756D-01 0.264D+00 0.991D+00
 Gap=     0.306 Goal=   None    Shift=    0.000
 Gap=     0.174 Goal=   None    Shift=    0.000
 RMSDP=1.40D-06 MaxDP=4.95D-05 DE=-1.84D-07 OVMax= 4.08D-04

 Cycle  17  Pass 1  IDiag  1:
 RMSU=  9.85D-07    CP:  1.00D+00  1.08D+00  3.00D+00  3.00D+00  2.25D+00
                    CP:  1.52D+00
 E= -687.128779839694     Delta-E=       -0.000000038357 Rises=F Damp=F
 DIIS: error= 3.96D-06 at cycle   7 NSaved=   7.
 NSaved= 7 IEnMin= 7 EnMin= -687.128779839694     IErMin= 7 ErrMin= 3.96D-06
 ErrMax= 3.96D-06  0.00D+00 EMaxC= 1.00D-01 BMatC= 4.30D-09 BMatP= 9.34D-09
 IDIUse=1 WtCom= 1.00D+00 WtEn= 0.00D+00
 Coeff-Com: -0.113D-01 0.276D+00 0.152D+00-0.563D+00-0.216D+00 0.461D+00
 Coeff-Com:  0.902D+00
 Coeff:     -0.113D-01 0.276D+00 0.152D+00-0.563D+00-0.216D+00 0.461D+00
 Coeff:      0.902D+00
 Gap=     0.306 Goal=   None    Shift=    0.000
 Gap=     0.174 Goal=   None    Shift=    0.000
 RMSDP=6.37D-07 MaxDP=2.20D-05 DE=-3.84D-08 OVMax= 1.99D-04

 Cycle  18  Pass 1  IDiag  1:
 RMSU=  2.12D-07    CP:  1.00D+00  1.08D+00  3.00D+00  3.00D+00  2.47D+00
                    CP:  1.79D+00  1.38D+00
 E= -687.128779850225     Delta-E=       -0.000000010532 Rises=F Damp=F
 DIIS: error= 2.12D-06 at cycle   8 NSaved=   8.
 NSaved= 8 IEnMin= 8 EnMin= -687.128779850225     IErMin= 8 ErrMin= 2.12D-06
 ErrMax= 2.12D-06  0.00D+00 EMaxC= 1.00D-01 BMatC= 1.21D-09 BMatP= 4.30D-09
 IDIUse=1 WtCom= 1.00D+00 WtEn= 0.00D+00
 Coeff-Com: -0.407D-02 0.757D-01 0.619D-01-0.511D-01-0.147D+00-0.275D+00
 Coeff-Com:  0.648D-01 0.128D+01
 Coeff:     -0.407D-02 0.757D-01 0.619D-01-0.511D-01-0.147D+00-0.275D+00
 Coeff:      0.648D-01 0.128D+01
 Gap=     0.306 Goal=   None    Shift=    0.000
 Gap=     0.174 Goal=   None    Shift=    0.000
 RMSDP=4.14D-07 MaxDP=1.46D-05 DE=-1.05D-08 OVMax= 1.30D-04

 Cycle  19  Pass 1  IDiag  1:
 RMSU=  1.46D-07    CP:  1.00D+00  1.08D+00  3.00D+00  3.00D+00  2.58D+00
                    CP:  1.92D+00  1.60D+00  2.08D+00
 E= -687.128779854538     Delta-E=       -0.000000004312 Rises=F Damp=F
 DIIS: error= 1.26D-06 at cycle   9 NSaved=   9.
 NSaved= 9 IEnMin= 9 EnMin= -687.128779854538     IErMin= 9 ErrMin= 1.26D-06
 ErrMax= 1.26D-06  0.00D+00 EMaxC= 1.00D-01 BMatC= 5.13D-10 BMatP= 1.21D-09
 IDIUse=1 WtCom= 1.00D+00 WtEn= 0.00D+00
 Coeff-Com:  0.223D-02-0.658D-01-0.280D-01 0.183D+00 0.467D-02-0.298D+00
 Coeff-Com: -0.323D+00 0.654D+00 0.871D+00
 Coeff:      0.223D-02-0.658D-01-0.280D-01 0.183D+00 0.467D-02-0.298D+00
 Coeff:     -0.323D+00 0.654D+00 0.871D+00
 Gap=     0.306 Goal=   None    Shift=    0.000
 Gap=     0.174 Goal=   None    Shift=    0.000
 RMSDP=2.49D-07 MaxDP=9.70D-06 DE=-4.31D-09 OVMax= 8.10D-05

 Cycle  20  Pass 1  IDiag  1:
 RMSU=  6.19D-08    CP:  1.00D+00  1.08D+00  3.00D+00  3.00D+00  2.63D+00
                    CP:  1.99D+00  1.74D+00  2.77D+00  1.44D+00
 E= -687.128779855917     Delta-E=       -0.000000001380 Rises=F Damp=F
 DIIS: error= 6.41D-07 at cycle  10 NSaved=  10.
 NSaved=10 IEnMin=10 EnMin= -687.128779855917     IErMin=10 ErrMin= 6.41D-07
 ErrMax= 6.41D-07  0.00D+00 EMaxC= 1.00D-01 BMatC= 1.29D-10 BMatP= 5.13D-10
 IDIUse=1 WtCom= 1.00D+00 WtEn= 0.00D+00
 Coeff-Com:  0.676D-03-0.105D-01-0.125D-01 0.282D-02 0.276D-01 0.774D-01
 Coeff-Com:  0.247D-01-0.363D+00-0.371D-02 0.126D+01
 Coeff:      0.676D-03-0.105D-01-0.125D-01 0.282D-02 0.276D-01 0.774D-01
 Coeff:      0.247D-01-0.363D+00-0.371D-02 0.126D+01
 Gap=     0.306 Goal=   None    Shift=    0.000
 Gap=     0.174 Goal=   None    Shift=    0.000
 RMSDP=1.15D-07 MaxDP=4.69D-06 DE=-1.38D-09 OVMax= 2.87D-05

 Cycle  21  Pass 1  IDiag  1:
 RMSU=  4.90D-08    CP:  1.00D+00  1.08D+00  3.00D+00  3.00D+00  2.64D+00
                    CP:  2.00D+00  1.75D+00  3.00D+00  1.86D+00  1.69D+00
 E= -687.128779856327     Delta-E=       -0.000000000410 Rises=F Damp=F
 DIIS: error= 4.51D-07 at cycle  11 NSaved=  11.
 NSaved=11 IEnMin=11 EnMin= -687.128779856327     IErMin=11 ErrMin= 4.51D-07
 ErrMax= 4.51D-07  0.00D+00 EMaxC= 1.00D-01 BMatC= 5.33D-11 BMatP= 1.29D-10
 IDIUse=1 WtCom= 1.00D+00 WtEn= 0.00D+00
 Coeff-Com: -0.104D-02 0.343D-01 0.105D-01-0.107D+00 0.708D-02 0.201D+00
 Coeff-Com:  0.215D+00-0.543D+00-0.463D+00 0.463D+00 0.118D+01
 Coeff:     -0.104D-02 0.343D-01 0.105D-01-0.107D+00 0.708D-02 0.201D+00
 Coeff:      0.215D+00-0.543D+00-0.463D+00 0.463D+00 0.118D+01
 Gap=     0.306 Goal=   None    Shift=    0.000
 Gap=     0.174 Goal=   None    Shift=    0.000
 RMSDP=1.06D-07 MaxDP=4.10D-06 DE=-4.10D-10 OVMax= 2.95D-05

 Cycle  22  Pass 1  IDiag  1:
 RMSU=  3.59D-08    CP:  1.00D+00  1.08D+00  3.00D+00  3.00D+00  2.65D+00
                    CP:  2.02D+00  1.78D+00  3.00D+00  2.20D+00  2.51D+00
                    CP:  2.27D+00
 E= -687.128779856558     Delta-E=       -0.000000000231 Rises=F Damp=F
 DIIS: error= 2.04D-07 at cycle  12 NSaved=  12.
 NSaved=12 IEnMin=12 EnMin= -687.128779856558     IErMin=12 ErrMin= 2.04D-07
 ErrMax= 2.04D-07  0.00D+00 EMaxC= 1.00D-01 BMatC= 1.40D-11 BMatP= 5.33D-11
 IDIUse=1 WtCom= 1.00D+00 WtEn= 0.00D+00
 Coeff-Com: -0.365D-03 0.931D-02 0.580D-02-0.227D-01-0.367D-02 0.190D-01
 Coeff-Com:  0.482D-01-0.373D-01-0.835D-01-0.230D+00 0.259D+00 0.104D+01
 Coeff:     -0.365D-03 0.931D-02 0.580D-02-0.227D-01-0.367D-02 0.190D-01
 Coeff:      0.482D-01-0.373D-01-0.835D-01-0.230D+00 0.259D+00 0.104D+01
 Gap=     0.306 Goal=   None    Shift=    0.000
 Gap=     0.174 Goal=   None    Shift=    0.000
 RMSDP=4.41D-08 MaxDP=1.88D-06 DE=-2.31D-10 OVMax= 1.12D-05

 Cycle  23  Pass 1  IDiag  1:
 RMSU=  1.26D-08    CP:  1.00D+00  1.08D+00  3.00D+00  3.00D+00  2.65D+00
                    CP:  2.02D+00  1.77D+00  3.00D+00  2.34D+00  2.85D+00
                    CP:  2.85D+00  1.29D+00
 E= -687.128779856594     Delta-E=       -0.000000000036 Rises=F Damp=F
 DIIS: error= 1.08D-07 at cycle  13 NSaved=  13.
 NSaved=13 IEnMin=13 EnMin= -687.128779856594     IErMin=13 ErrMin= 1.08D-07
 ErrMax= 1.08D-07  0.00D+00 EMaxC= 1.00D-01 BMatC= 4.90D-12 BMatP= 1.40D-11
 IDIUse=1 WtCom= 1.00D+00 WtEn= 0.00D+00
 Coeff-Com:  0.220D-03-0.840D-02-0.761D-03 0.277D-01-0.371D-02-0.668D-01
 Coeff-Com: -0.518D-01 0.172D+00 0.136D+00-0.258D+00-0.299D+00 0.415D+00
 Coeff-Com:  0.938D+00
 Coeff:      0.220D-03-0.840D-02-0.761D-03 0.277D-01-0.371D-02-0.668D-01
 Coeff:     -0.518D-01 0.172D+00 0.136D+00-0.258D+00-0.299D+00 0.415D+00
 Coeff:      0.938D+00
 Gap=     0.306 Goal=   None    Shift=    0.000
 Gap=     0.174 Goal=   None    Shift=    0.000
 RMSDP=2.33D-08 MaxDP=8.19D-07 DE=-3.59D-11 OVMax= 6.21D-06

 Cycle  24  Pass 1  IDiag  1:
 RMSU=  9.92D-09    CP:  1.00D+00  1.08D+00  3.00D+00  3.00D+00  2.65D+00
                    CP:  2.02D+00  1.78D+00  3.00D+00  2.40D+00  3.00D+00
                    CP:  3.00D+00  1.48D+00  1.55D+00
 E= -687.128779856602     Delta-E=       -0.000000000008 Rises=F Damp=F
 DIIS: error= 5.18D-08 at cycle  14 NSaved=  14.
 NSaved=14 IEnMin=14 EnMin= -687.128779856602     IErMin=14 ErrMin= 5.18D-08
 ErrMax= 5.18D-08  0.00D+00 EMaxC= 1.00D-01 BMatC= 1.49D-12 BMatP= 4.90D-12
 IDIUse=1 WtCom= 1.00D+00 WtEn= 0.00D+00
 Coeff-Com:  0.149D-03-0.436D-02-0.152D-02 0.117D-01 0.466D-03-0.190D-01
 Coeff-Com: -0.221D-01 0.418D-01 0.561D-01 0.123D-01-0.140D+00-0.252D+00
 Coeff-Com:  0.231D+00 0.109D+01
 Coeff:      0.149D-03-0.436D-02-0.152D-02 0.117D-01 0.466D-03-0.190D-01
 Coeff:     -0.221D-01 0.418D-01 0.561D-01 0.123D-01-0.140D+00-0.252D+00
 Coeff:      0.231D+00 0.109D+01
 Gap=     0.306 Goal=   None    Shift=    0.000
 Gap=     0.174 Goal=   None    Shift=    0.000
 RMSDP=1.35D-08 MaxDP=4.31D-07 DE=-8.41D-12 OVMax= 3.36D-06

 Cycle  25  Pass 1  IDiag  1:
 RMSU=  6.91D-09    CP:  1.00D+00  1.08D+00  3.00D+00  3.00D+00  2.65D+00
                    CP:  2.02D+00  1.78D+00  3.00D+00  2.43D+00  3.00D+00
                    CP:  3.00D+00  1.57D+00  2.05D+00  1.76D+00
 E= -687.128779856614     Delta-E=       -0.000000000012 Rises=F Damp=F
 DIIS: error= 3.11D-08 at cycle  15 NSaved=  15.
 NSaved=15 IEnMin=15 EnMin= -687.128779856614     IErMin=15 ErrMin= 3.11D-08
 ErrMax= 3.11D-08  0.00D+00 EMaxC= 1.00D-01 BMatC= 4.56D-13 BMatP= 1.49D-12
 IDIUse=1 WtCom= 1.00D+00 WtEn= 0.00D+00
 Coeff-Com: -0.291D-04 0.145D-02-0.105D-03-0.546D-02 0.104D-02 0.155D-01
 Coeff-Com:  0.104D-01-0.436D-01-0.243D-01 0.789D-01 0.621D-01-0.195D+00
 Coeff-Com: -0.211D+00 0.269D+00 0.104D+01
 Coeff:     -0.291D-04 0.145D-02-0.105D-03-0.546D-02 0.104D-02 0.155D-01
 Coeff:      0.104D-01-0.436D-01-0.243D-01 0.789D-01 0.621D-01-0.195D+00
 Coeff:     -0.211D+00 0.269D+00 0.104D+01
 Gap=     0.306 Goal=   None    Shift=    0.000
 Gap=     0.174 Goal=   None    Shift=    0.000
 RMSDP=6.64D-09 MaxDP=1.87D-07 DE=-1.16D-11 OVMax= 1.55D-06

 SCF Done:  E(ULC-wHPBE) =  -687.128779857     A.U. after   25 cycles
            NFock= 25  Conv=0.66D-08     -V/T= 2.0115
 <Sx>= 0.0000 <Sy>= 0.0000 <Sz>= 0.5000 <S**2>= 0.7669 S= 0.5084
 <L.S>= 0.000000000000E+00
 KE= 6.792870982090D+02 PE=-3.724521310024D+03 EE= 1.274475933558D+03
 Annihilation of the first spin contaminant:
 S**2 before annihilation     0.7669,   after     0.7502
 Leave Link  502 at Wed May 11 07:15:25 2022, MaxMem=  6442450944 cpu:            3005.6 elap:             190.7
 (Enter /mnt/gpfs3_amd/share/apps/amd/gaussian/g16-A.03/g16/l801.exe)
 DoSCS=F DFT=T ScalE2(SS,OS)=  1.000000  1.000000
 ExpMin= 1.22D-01 ExpMax= 1.71D+03 ExpMxC= 2.58D+02 IAcc=3 IRadAn=         5 AccDes= 0.00D+00
 HarFok:  IExCor=  205 AccDes= 0.00D+00 IRadAn=         5 IDoV=-2 UseB2=F ITyADJ=14
 ICtDFT= 12500011 ScaDFX=  1.000000  1.000000  1.000000  1.000000
 Largest valence mixing into a core orbital is  7.05D-05
 Largest core mixing into a valence orbital is  3.13D-05
 Largest valence mixing into a core orbital is  7.08D-05
 Largest core mixing into a valence orbital is  3.17D-05
 Range of M.O.s used for correlation:    18   303
 NBasis=   303 NAE=    58 NBE=    57 NFC=    17 NFV=     0
 NROrb=    286 NOA=    41 NOB=    40 NVA=   245 NVB=   246

 **** Warning!!: The largest alpha MO coefficient is  0.14267059D+02


 **** Warning!!: The largest beta MO coefficient is  0.14264426D+02

 Leave Link  801 at Wed May 11 07:15:25 2022, MaxMem=  6442450944 cpu:               5.0 elap:               0.4
 (Enter /mnt/gpfs3_amd/share/apps/amd/gaussian/g16-A.03/g16/l914.exe)
 UHF ground state
 Ignoring spin specification with unrestricted ground state.
 Two-electron integrals replicated using symmetry.
 MDV=  6442450944 DFT=T DoStab=F Mixed=T DoRPA=T DoScal=F NonHer=T
 Making orbital integer symmetry assigments:
 Orbital symmetries:
 Alpha Orbitals:
       Occupied  (A) (A) (A) (A) (A) (A) (A) (A) (A) (A) (A) (A)
                 (A) (A) (A) (A) (A) (A) (A) (A) (A) (A) (A) (A)
                 (A) (A) (A) (A) (A) (A) (A) (A) (A) (A) (A) (A)
                 (A) (A) (A) (A) (A) (A) (A) (A) (A) (A) (A) (A)
                 (A) (A) (A) (A) (A) (A) (A) (A) (A) (A)
       Virtual   (A) (A) (A) (A) (A) (A) (A) (A) (A) (A) (A) (A)
                 (A) (A) (A) (A) (A) (A) (A) (A) (A) (A) (A) (A)
                 (A) (A) (A) (A) (A) (A) (A) (A) (A) (A) (A) (A)
                 (A) (A) (A) (A) (A) (A) (A) (A) (A) (A) (A) (A)
                 (A) (A) (A) (A) (A) (A) (A) (A) (A) (A) (A) (A)
                 (A) (A) (A) (A) (A) (A) (A) (A) (A) (A) (A) (A)
                 (A) (A) (A) (A) (A) (A) (A) (A) (A) (A) (A) (A)
                 (A) (A) (A) (A) (A) (A) (A) (A) (A) (A) (A) (A)
                 (A) (A) (A) (A) (A) (A) (A) (A) (A) (A) (A) (A)
                 (A) (A) (A) (A) (A) (A) (A) (A) (A) (A) (A) (A)
                 (A) (A) (A) (A) (A) (A) (A) (A) (A) (A) (A) (A)
                 (A) (A) (A) (A) (A) (A) (A) (A) (A) (A) (A) (A)
                 (A) (A) (A) (A) (A) (A) (A) (A) (A) (A) (A) (A)
                 (A) (A) (A) (A) (A) (A) (A) (A) (A) (A) (A) (A)
                 (A) (A) (A) (A) (A) (A) (A) (A) (A) (A) (A) (A)
                 (A) (A) (A) (A) (A) (A) (A) (A) (A) (A) (A) (A)
                 (A) (A) (A) (A) (A) (A) (A) (A) (A) (A) (A) (A)
                 (A) (A) (A) (A) (A) (A) (A) (A) (A) (A) (A) (A)
                 (A) (A) (A) (A) (A) (A) (A) (A) (A) (A) (A) (A)
                 (A) (A) (A) (A) (A) (A) (A) (A) (A) (A) (A) (A)
                 (A) (A) (A) (A) (A)
 Beta  Orbitals:
       Occupied  (A) (A) (A) (A) (A) (A) (A) (A) (A) (A) (A) (A)
                 (A) (A) (A) (A) (A) (A) (A) (A) (A) (A) (A) (A)
                 (A) (A) (A) (A) (A) (A) (A) (A) (A) (A) (A) (A)
                 (A) (A) (A) (A) (A) (A) (A) (A) (A) (A) (A) (A)
                 (A) (A) (A) (A) (A) (A) (A) (A) (A)
       Virtual   (A) (A) (A) (A) (A) (A) (A) (A) (A) (A) (A) (A)
                 (A) (A) (A) (A) (A) (A) (A) (A) (A) (A) (A) (A)
                 (A) (A) (A) (A) (A) (A) (A) (A) (A) (A) (A) (A)
                 (A) (A) (A) (A) (A) (A) (A) (A) (A) (A) (A) (A)
                 (A) (A) (A) (A) (A) (A) (A) (A) (A) (A) (A) (A)
                 (A) (A) (A) (A) (A) (A) (A) (A) (A) (A) (A) (A)
                 (A) (A) (A) (A) (A) (A) (A) (A) (A) (A) (A) (A)
                 (A) (A) (A) (A) (A) (A) (A) (A) (A) (A) (A) (A)
                 (A) (A) (A) (A) (A) (A) (A) (A) (A) (A) (A) (A)
                 (A) (A) (A) (A) (A) (A) (A) (A) (A) (A) (A) (A)
                 (A) (A) (A) (A) (A) (A) (A) (A) (A) (A) (A) (A)
                 (A) (A) (A) (A) (A) (A) (A) (A) (A) (A) (A) (A)
                 (A) (A) (A) (A) (A) (A) (A) (A) (A) (A) (A) (A)
                 (A) (A) (A) (A) (A) (A) (A) (A) (A) (A) (A) (A)
                 (A) (A) (A) (A) (A) (A) (A) (A) (A) (A) (A) (A)
                 (A) (A) (A) (A) (A) (A) (A) (A) (A) (A) (A) (A)
                 (A) (A) (A) (A) (A) (A) (A) (A) (A) (A) (A) (A)
                 (A) (A) (A) (A) (A) (A) (A) (A) (A) (A) (A) (A)
                 (A) (A) (A) (A) (A) (A) (A) (A) (A) (A) (A) (A)
                 (A) (A) (A) (A) (A) (A) (A) (A) (A) (A) (A) (A)
                 (A) (A) (A) (A) (A) (A)
    60 initial guesses have been made.
 Convergence on wavefunction:    0.001000000000000
 Davidson Disk Diagonalization:  ConvIn= 1.00D-03 SkipCon=T Conv= 1.00D-03.
 Max sub-space:  2000 roots to seek:    60 dimension of matrix:        19885
 Iteration     1 Dimension    60 NMult     0 NNew     60
 CISAX will form    60 AO SS matrices at one time.
 NMat=    60 NSing=    60 JSym2X= 0.
 FoFJK:  IHMeth= 1 ICntrl=       0 DoSepK=T KAlg= 0 I1Cent=           0 FoldK=F
 IRaf=         1 NMat=     120 IRICut=       1 DoRegI=T DoRafI=F ISym2E= 0 IDoP0=3 IntGTp=3.
 FoFCou: FMM=F IPFlag=           0 FMFlag=      100000 FMFlg1=           0
         NFxFlg=           0 DoJE=F BraDBF=F KetDBF=F FulRan=T
         wScrn=  0.000000 ICntrl=       500 IOpCl=  0 I1Cent=           0 NGrid=           0
         NMat0=   60 NMatS0=     60 NMatT0=    0 NMatD0=   60 NMtDS0=    0 NMtDT0=    0
 Symmetry not used in FoFCou.
 New state      1 was old state      2
 New state      2 was old state      3
 New state      3 was old state      1
 New state      5 was old state      7
 New state      6 was old state      5
 New state      7 was old state      8
 New state      8 was old state      6
 New state     10 was old state     25
 New state     12 was old state     10
 New state     13 was old state     18
 New state     14 was old state     27
 New state     15 was old state     24
 Excitation Energies [eV] at current iteration:
 Root      1 :     1.314216812696516
 Root      2 :     1.516424867446828
 Root      3 :     1.849958991262026
 Root      4 :     2.938892357680515
 Root      5 :     3.415535392971062
 Root      6 :     3.624437648058981
 Root      7 :     3.823336801880127
 Root      8 :     4.061649074015105
 Root      9 :     4.081067468214570
 Root     10 :     4.470005355773250
 Root     11 :     4.471909913431859
 Root     12 :     4.638007983538648
 Root     13 :     4.806673413375512
 Root     14 :     4.888198936284290
 Root     15 :     4.940011540960749
 Root     16 :     5.077806678560045
 Root     17 :     5.160773443542466
 Root     18 :     5.218120072249654
 Root     19 :     5.360111838112243
 Root     20 :     5.409055801230142
 Root     21 :     5.500373359532425
 Root     22 :     5.587111288615762
 Root     23 :     5.628465520081782
 Root     24 :     5.689350234655152
 Root     25 :     5.740109461738147
 Root     26 :     5.758960579598221
 Root     27 :     5.927643629550555
 Root     28 :     5.982014746071536
 Root     29 :     5.995318179630792
 Root     30 :     6.066326935058539
 Root     31 :     6.137582894288471
 Root     32 :     6.179005562884789
 Root     33 :     6.387764424854935
 Root     34 :     6.394110832219519
 Root     35 :     6.484298691816260
 Root     36 :     6.553129502278494
 Root     37 :     6.692092618265735
 Root     38 :     6.714168226783736
 Root     39 :     6.725234938985887
 Root     40 :     6.868207476476915
 Root     41 :     6.943541387170494
 Root     42 :     7.005120908869473
 Root     43 :     7.112927477418530
 Root     44 :     7.200241415342834
 Root     45 :     7.237841122647320
 Root     46 :     7.259052885535499
 Root     47 :     7.351613580981518
 Root     48 :     7.402440923509502
 Root     49 :     7.431459801609388
 Root     50 :     7.445413872662889
 Root     51 :     7.568684372886928
 Root     52 :     7.579407439224017
 Root     53 :     7.813082255591336
 Root     54 :     7.836511893850147
 Root     55 :     7.958710897300714
 Root     56 :     8.048881877375612
 Root     57 :     8.097837734603267
 Root     58 :     8.219028295933969
 Root     59 :     8.411726528342802
 Root     60 :     9.002935768749881
 Iteration     2 Dimension    90 NMult    60 NNew     30
 CISAX will form    30 AO SS matrices at one time.
 NMat=    30 NSing=    30 JSym2X= 0.
 Root      1 not converged, maximum delta is    0.134166502673150
 Root      2 not converged, maximum delta is    0.584481723536095
 Root      3 not converged, maximum delta is    0.476101702760375
 Root      4 not converged, maximum delta is    0.079307067974050
 Root      5 not converged, maximum delta is    0.073914547869110
 Root      6 not converged, maximum delta is    0.083230918629315
 Root      7 not converged, maximum delta is    0.071477059474876
 New state      8 was old state      9
 Root      8 not converged, maximum delta is    0.391745373499153
 New state      9 was old state     10
 Root      9 not converged, maximum delta is    0.303173123184138
 New state     10 was old state      8
 Root     10 not converged, maximum delta is    0.437098258434213
 New state     11 was old state     12
 Root     11 not converged, maximum delta is    0.161653401597862
 New state     12 was old state     11
 Root     12 not converged, maximum delta is    0.263216568626047
 Root     13 not converged, maximum delta is    0.243050595286448
 New state     14 was old state     15
 Root     14 not converged, maximum delta is    0.187564819046925
 New state     15 was old state     14
 Root     15 not converged, maximum delta is    0.203559666304112
 Excitation Energies [eV] at current iteration:
 Root      1 :     1.131816744445689   Change is   -0.182400068250828
 Root      2 :     1.353679383231742   Change is   -0.162745484215086
 Root      3 :     1.423182297475367   Change is   -0.426776693786658
 Root      4 :     2.695840844705874   Change is   -0.243051512974641
 Root      5 :     3.298338904358698   Change is   -0.117196488612364
 Root      6 :     3.508251878332856   Change is   -0.116185769726125
 Root      7 :     3.685926951103607   Change is   -0.137409850776520
 Root      8 :     3.899698872907305   Change is   -0.181368595307266
 Root      9 :     3.906932143826595   Change is   -0.563073211946655
 Root     10 :     3.934788245190131   Change is   -0.126860828824975
 Root     11 :     4.085286380838279   Change is   -0.552721602700369
 Root     12 :     4.257505519068350   Change is   -0.214404394363509
 Root     13 :     4.533494031015236   Change is   -0.273179382360276
 Root     14 :     4.605525761750821   Change is   -0.334485779209929
 Root     15 :     4.631186230979062   Change is   -0.257012705305228
 Iteration     3 Dimension   120 NMult    90 NNew     30
 CISAX will form    30 AO SS matrices at one time.
 NMat=    30 NSing=    30 JSym2X= 0.
 Root      1 not converged, maximum delta is    0.028686815547190
 Root      2 not converged, maximum delta is    0.071757921193804
 Root      3 not converged, maximum delta is    0.070291201041564
 Root      4 not converged, maximum delta is    0.017072993336098
 Root      5 not converged, maximum delta is    0.017150580238273
 Root      6 not converged, maximum delta is    0.017413603544777
 Root      7 not converged, maximum delta is    0.011206620059495
 New state      8 was old state      9
 Root      8 not converged, maximum delta is    0.241053569213980
 New state      9 was old state      8
 Root      9 not converged, maximum delta is    0.143954807539713
 Root     10 not converged, maximum delta is    0.064963917779561
 Root     11 not converged, maximum delta is    0.038142887257170
 Root     12 not converged, maximum delta is    0.035836448967534
 Root     13 not converged, maximum delta is    0.048186830867191
 Root     14 not converged, maximum delta is    0.047528361767567
 Root     15 not converged, maximum delta is    0.049950599349555
 Excitation Energies [eV] at current iteration:
 Root      1 :     1.094632823039489   Change is   -0.037183921406199
 Root      2 :     1.322913208180845   Change is   -0.030766175050897
 Root      3 :     1.394467729141910   Change is   -0.028714568333457
 Root      4 :     2.664841506697232   Change is   -0.030999338008642
 Root      5 :     3.290495389413964   Change is   -0.007843514944734
 Root      6 :     3.497275751240200   Change is   -0.010976127092656
 Root      7 :     3.676736014279876   Change is   -0.009190936823730
 Root      8 :     3.869297530946070   Change is   -0.037634612880525
 Root      9 :     3.874870978582526   Change is   -0.024827894324779
 Root     10 :     3.924112594360821   Change is   -0.010675650829310
 Root     11 :     4.019726515128694   Change is   -0.065559865709585
 Root     12 :     4.230791217395404   Change is   -0.026714301672946
 Root     13 :     4.473387929759459   Change is   -0.060106101255777
 Root     14 :     4.584931763731738   Change is   -0.020593998019082
 Root     15 :     4.607852025448553   Change is   -0.023334205530509
 Iteration     4 Dimension   150 NMult   120 NNew     30
 CISAX will form    30 AO SS matrices at one time.
 NMat=    30 NSing=    30 JSym2X= 0.
 Root      1 not converged, maximum delta is    0.005872375300180
 Root      2 not converged, maximum delta is    0.006040273954865
 Root      3 not converged, maximum delta is    0.006695682001984
 Root      4 not converged, maximum delta is    0.005971968073970
 Root      5 not converged, maximum delta is    0.002885350973340
 Root      6 not converged, maximum delta is    0.004398956972036
 Root      7 not converged, maximum delta is    0.002505484049126
 Root      8 not converged, maximum delta is    0.073361227819379
 Root      9 not converged, maximum delta is    0.055004352104666
 Root     10 not converged, maximum delta is    0.010417798011583
 Root     11 not converged, maximum delta is    0.011390417145143
 Root     12 not converged, maximum delta is    0.009870117724980
 Root     13 not converged, maximum delta is    0.021542564849809
 Root     14 not converged, maximum delta is    0.010318228388766
 Root     15 not converged, maximum delta is    0.007568084492806
 Excitation Energies [eV] at current iteration:
 Root      1 :     1.091765203822646   Change is   -0.002867619216843
 Root      2 :     1.320332623090823   Change is   -0.002580585090022
 Root      3 :     1.392095129549433   Change is   -0.002372599592478
 Root      4 :     2.661134862040868   Change is   -0.003706644656364
 Root      5 :     3.289575648691639   Change is   -0.000919740722325
 Root      6 :     3.495933112836088   Change is   -0.001342638404112
 Root      7 :     3.675931429732838   Change is   -0.000804584547039
 Root      8 :     3.866515831851646   Change is   -0.002781699094423
 Root      9 :     3.871154998460171   Change is   -0.003715980122355
 Root     10 :     3.923054352333260   Change is   -0.001058242027561
 Root     11 :     4.012551153471480   Change is   -0.007175361657213
 Root     12 :     4.227881364394839   Change is   -0.002909853000566
 Root     13 :     4.460578546258319   Change is   -0.012809383501139
 Root     14 :     4.583659491680079   Change is   -0.001272272051659
 Root     15 :     4.606341643457343   Change is   -0.001510381991210
 Iteration     5 Dimension   180 NMult   150 NNew     30
 CISAX will form    30 AO SS matrices at one time.
 NMat=    30 NSing=    30 JSym2X= 0.
 Root      1 not converged, maximum delta is    0.001890257446469
 Root      2 not converged, maximum delta is    0.001168262987216
 Root      3 not converged, maximum delta is    0.001058237562197
 Root      4 not converged, maximum delta is    0.001338031592966
 Root      5 has converged.
 Root      6 has converged.
 Root      7 has converged.
 Root      8 not converged, maximum delta is    0.013925080787350
 Root      9 not converged, maximum delta is    0.011032315920150
 Root     10 not converged, maximum delta is    0.001183229856336
 Root     11 not converged, maximum delta is    0.004437631870803
 Root     12 not converged, maximum delta is    0.002098439991189
 Root     13 not converged, maximum delta is    0.014755067198041
 Root     14 not converged, maximum delta is    0.004319547825930
 Root     15 not converged, maximum delta is    0.003518430751127
 Excitation Energies [eV] at current iteration:
 Root      1 :     1.091563201108466   Change is   -0.000202002714180
 Root      2 :     1.320095516602698   Change is   -0.000237106488124
 Root      3 :     1.391903811815169   Change is   -0.000191317734264
 Root      4 :     2.660719429004107   Change is   -0.000415433036761
 Root      5 :     3.289503700666788   Change is   -0.000071948024850
 Root      6 :     3.495812204897369   Change is   -0.000120907938720
 Root      7 :     3.675858676419330   Change is   -0.000072753313507
 Root      8 :     3.866257149507345   Change is   -0.000258682344301
 Root      9 :     3.870807141738076   Change is   -0.000347856722095
 Root     10 :     3.922952497432062   Change is   -0.000101854901199
 Root     11 :     4.011821805254204   Change is   -0.000729348217276
 Root     12 :     4.227641494961975   Change is   -0.000239869432864
 Root     13 :     4.457321140093685   Change is   -0.003257406164634
 Root     14 :     4.583511644832414   Change is   -0.000147846847666
 Root     15 :     4.606164520534488   Change is   -0.000177122922855
 Iteration     6 Dimension   204 NMult   180 NNew     24
 CISAX will form    24 AO SS matrices at one time.
 NMat=    24 NSing=    24 JSym2X= 0.
 Root      1 has converged.
 Root      2 has converged.
 Root      3 has converged.
 Root      4 has converged.
 Root      5 has converged.
 Root      6 has converged.
 Root      7 has converged.
 Root      8 not converged, maximum delta is    0.001113249399948
 Root      9 has converged.
 Root     10 has converged.
 Root     11 has converged.
 Root     12 has converged.
 Root     13 not converged, maximum delta is    0.004670533602262
 Root     14 not converged, maximum delta is    0.001463395119306
 Root     15 not converged, maximum delta is    0.001331562361888
 Excitation Energies [eV] at current iteration:
 Root      1 :     1.091556234713472   Change is   -0.000006966394994
 Root      2 :     1.320085028257326   Change is   -0.000010488345372
 Root      3 :     1.391896047051609   Change is   -0.000007764763560
 Root      4 :     2.660698767005842   Change is   -0.000020661998265
 Root      5 :     3.289501459602547   Change is   -0.000002241064242
 Root      6 :     3.495806804648084   Change is   -0.000005400249285
 Root      7 :     3.675856527770415   Change is   -0.000002148648915
 Root      8 :     3.866236900513921   Change is   -0.000020248993424
 Root      9 :     3.870778488200472   Change is   -0.000028653537604
 Root     10 :     3.922944612813869   Change is   -0.000007884618193
 Root     11 :     4.011761358750303   Change is   -0.000060446503901
 Root     12 :     4.227625135761677   Change is   -0.000016359200297
 Root     13 :     4.456729674734038   Change is   -0.000591465359648
 Root     14 :     4.583491540548287   Change is   -0.000020104284127
 Root     15 :     4.606142882205402   Change is   -0.000021638329086
 Iteration     7 Dimension   212 NMult   204 NNew      8
 CISAX will form     8 AO SS matrices at one time.
 NMat=     8 NSing=     8 JSym2X= 0.
 Root      1 has converged.
 Root      2 has converged.
 Root      3 has converged.
 Root      4 has converged.
 Root      5 has converged.
 Root      6 has converged.
 Root      7 has converged.
 Root      8 has converged.
 Root      9 has converged.
 Root     10 has converged.
 Root     11 has converged.
 Root     12 has converged.
 Root     13 has converged.
 Root     14 has converged.
 Root     15 has converged.
 Excitation Energies [eV] at current iteration:
 Root      1 :     1.091556176893875   Change is   -0.000000057819598
 Root      2 :     1.320085016072092   Change is   -0.000000012185234
 Root      3 :     1.391895963119969   Change is   -0.000000083931640
 Root      4 :     2.660698616099192   Change is   -0.000000150906650
 Root      5 :     3.289501426340618   Change is   -0.000000033261928
 Root      6 :     3.495806668667854   Change is   -0.000000135980230
 Root      7 :     3.675856485454435   Change is   -0.000000042315980
 Root      8 :     3.866235676008809   Change is   -0.000001224505113
 Root      9 :     3.870778136624876   Change is   -0.000000351575596
 Root     10 :     3.922944537989765   Change is   -0.000000074824104
 Root     11 :     4.011759223118783   Change is   -0.000002135631521
 Root     12 :     4.227624958259948   Change is   -0.000000177501729
 Root     13 :     4.456683062462113   Change is   -0.000046612271925
 Root     14 :     4.583489779848678   Change is   -0.000001760699608
 Root     15 :     4.606141157506276   Change is   -0.000001724699127
 Convergence achieved on expansion vectors.
 ***********************************************************************
 Excited states from <AA,BB:AA,BB> singles matrix:
 ***********************************************************************
 
 ExtSpn:  IState=     1 X2= 1.009 Y2= 0.009 X2-Y2-1=-1.11D-16
          S2Grnd=  0.767 Ra=  0.004 Rb=  0.002 T=  0.008 S2Ext=  0.015 S2=  0.782
 ExtSpn:  IState=     2 X2= 1.011 Y2= 0.011 X2-Y2-1= 2.22D-16
          S2Grnd=  0.767 Ra=  0.005 Rb=  0.004 T= -0.001 S2Ext=  0.008 S2=  0.775
 ExtSpn:  IState=     3 X2= 1.008 Y2= 0.008 X2-Y2-1= 0.00D+00
          S2Grnd=  0.767 Ra=  0.004 Rb=  0.007 T=  0.004 S2Ext=  0.015 S2=  0.782
 ExtSpn:  IState=     4 X2= 1.007 Y2= 0.007 X2-Y2-1= 2.22D-16
          S2Grnd=  0.767 Ra=  0.015 Rb=  0.016 T=  0.016 S2Ext=  0.047 S2=  0.814
 ExtSpn:  IState=     5 X2= 1.001 Y2= 0.001 X2-Y2-1= 4.44D-16
          S2Grnd=  0.767 Ra=  0.003 Rb=  0.011 T=  0.005 S2Ext=  0.019 S2=  0.786
 ExtSpn:  IState=     6 X2= 1.001 Y2= 0.001 X2-Y2-1= 6.66D-16
          S2Grnd=  0.767 Ra=  0.004 Rb=  0.020 T=  0.011 S2Ext=  0.035 S2=  0.802
 ExtSpn:  IState=     7 X2= 1.001 Y2= 0.001 X2-Y2-1=-3.33D-16
          S2Grnd=  0.767 Ra=  0.006 Rb=  0.020 T=  0.014 S2Ext=  0.040 S2=  0.806
 ExtSpn:  IState=     8 X2= 1.032 Y2= 0.032 X2-Y2-1=-4.44D-16
          S2Grnd=  0.767 Ra=  0.350 Rb=  0.364 T=  0.707 S2Ext=  1.421 S2=  2.188
 ExtSpn:  IState=     9 X2= 1.011 Y2= 0.011 X2-Y2-1= 1.78D-15
          S2Grnd=  0.767 Ra=  0.161 Rb=  0.106 T=  0.239 S2Ext=  0.505 S2=  1.272
 ExtSpn:  IState=    10 X2= 1.001 Y2= 0.001 X2-Y2-1= 2.22D-16
          S2Grnd=  0.767 Ra=  0.013 Rb=  0.027 T=  0.024 S2Ext=  0.064 S2=  0.831
 ExtSpn:  IState=    11 X2= 1.026 Y2= 0.026 X2-Y2-1= 0.00D+00
          S2Grnd=  0.767 Ra=  0.258 Rb=  0.264 T=  0.487 S2Ext=  1.009 S2=  1.776
 ExtSpn:  IState=    12 X2= 1.006 Y2= 0.006 X2-Y2-1=-1.22D-15
          S2Grnd=  0.767 Ra=  0.257 Rb=  0.155 T=  0.388 S2Ext=  0.800 S2=  1.567
 ExtSpn:  IState=    13 X2= 1.012 Y2= 0.012 X2-Y2-1= 6.66D-16
          S2Grnd=  0.767 Ra=  0.289 Rb=  0.248 T=  0.520 S2Ext=  1.057 S2=  1.823
 ExtSpn:  IState=    14 X2= 1.006 Y2= 0.006 X2-Y2-1= 8.88D-16
          S2Grnd=  0.767 Ra=  0.617 Rb=  0.311 T=  0.866 S2Ext=  1.794 S2=  2.561
 ExtSpn:  IState=    15 X2= 1.005 Y2= 0.005 X2-Y2-1=-1.11D-16
          S2Grnd=  0.767 Ra=  0.516 Rb=  0.417 T=  0.922 S2Ext=  1.854 S2=  2.621
 1PDM for each excited state written to RWF  633
 Ground to excited state transition densities written to RWF  633
 Ground to excited state transition electric dipole moments (Au):
       state          X           Y           Z        Dip. S.      Osc.
         1        -0.2833     -0.2605     -0.0064      0.1481      0.0040
         2         1.8847      0.3349     -0.0375      3.6656      0.1185
         3         1.3571      0.3692     -0.1519      2.0012      0.0682
         4         0.5482     -0.8474     -0.0097      1.0187      0.0664
         5         0.4202     -0.1519     -0.0349      0.2009      0.0162
         6         0.0395      0.2940     -0.0248      0.0886      0.0076
         7         0.0446      0.1208      0.0095      0.0167      0.0015
         8        -0.0143      0.4959     -0.0288      0.2470      0.0234
         9        -0.2370      0.0314      0.0533      0.0600      0.0057
        10         0.0223      0.0727      0.0348      0.0070      0.0007
        11         0.7540     -0.4828     -0.0529      0.8044      0.0791
        12         0.1717      0.0485     -0.0189      0.0322      0.0033
        13         0.2425     -0.6347      0.0395      0.4632      0.0506
        14        -0.0747      0.2748      0.1192      0.0953      0.0107
        15        -0.0030      0.1703     -0.0855      0.0363      0.0041
 Ground to excited state transition velocity dipole moments (Au):
       state          X           Y           Z        Dip. S.      Osc.
         1         0.0096      0.0127      0.0000      0.0003      0.0042
         2        -0.0853     -0.0140      0.0029      0.0075      0.1028
         3        -0.0637     -0.0185      0.0086      0.0045      0.0584
         4        -0.0503      0.0796      0.0005      0.0089      0.0604
         5        -0.0496      0.0182      0.0041      0.0028      0.0155
         6        -0.0054     -0.0384      0.0038      0.0015      0.0079
         7        -0.0065     -0.0160     -0.0016      0.0003      0.0015
         8         0.0031     -0.0684      0.0043      0.0047      0.0221
         9         0.0355     -0.0070     -0.0083      0.0014      0.0065
        10        -0.0032     -0.0097     -0.0067      0.0001      0.0007
        11        -0.1069      0.0678      0.0088      0.0161      0.0728
        12        -0.0292     -0.0089      0.0035      0.0009      0.0041
        13        -0.0387      0.0993     -0.0055      0.0114      0.0464
        14         0.0129     -0.0449     -0.0199      0.0026      0.0102
        15        -0.0000     -0.0283      0.0147      0.0010      0.0040
 Ground to excited state transition magnetic dipole moments (Au):
       state          X           Y           Z
         1        -0.0168     -0.3538      0.3437
         2         0.1891     -0.0765     -0.1578
         3        -0.1867      0.0273      0.3470
         4         0.0054      0.0079      0.1139
         5         0.0314      0.0460      0.0040
         6         0.0481     -0.0933     -0.0614
         7         0.0083      0.0560     -0.1472
         8        -0.0086      0.0561      0.0032
         9        -0.0293     -0.0107     -0.1740
        10         0.0043     -0.0571     -0.1434
        11         0.0755     -0.0128      0.2024
        12         0.0193      0.0109     -0.0729
        13         0.0194      0.0190     -0.0654
        14        -0.0107      0.1040     -0.2414
        15        -0.0379      0.0682      0.1106
 Ground to excited state transition velocity quadrupole moments (Au):
       state          XX          YY          ZZ          XY          XZ          YZ
         1         0.0035      0.0020     -0.0093     -0.0400     -0.0063      0.0063
         2        -0.1697      0.1008      0.0044      0.1653      0.0152     -0.0311
         3        -0.1241      0.0757      0.0143      0.1449      0.0116     -0.0348
         4        -0.4130      0.2828     -0.0166     -0.1723     -0.0273     -0.0167
         5        -0.1893      0.0922      0.0151      0.0147      0.0010     -0.0450
         6         0.0386     -0.0791      0.0115      0.1351      0.0384     -0.0327
         7         0.0273     -0.0064      0.0104      0.0604     -0.0243     -0.0190
         8         0.0673     -0.1868      0.0313      0.2160      0.0008     -0.0147
         9        -0.2364     -0.1898      0.0137      0.0261      0.0027      0.0420
        10         0.1220      0.0150     -0.0067      0.0140      0.0056      0.0167
        11        -0.5892      0.3535     -0.0115      0.1047      0.0169     -0.0672
        12        -0.1313     -0.0347      0.0233      0.0040      0.0079     -0.0510
        13        -0.4959      0.3889     -0.0276     -0.1254     -0.0351     -0.0226
        14         0.0059     -0.0871      0.0118     -0.1183     -0.0799      0.0363
        15        -0.0428     -0.0260      0.0158      0.0655     -0.0326     -0.0463
 <0|del|b> * <b|rxdel|0> + <0|del|b> * <b|delr+rdel|0>
 Rotatory Strengths (R) in cgs (10**-40 erg-esu-cm/Gauss)
       state          XX          YY          ZZ    R(velocity)    E-M Angle
         1       -38.7957     -0.8759    -42.1699    -27.2805      126.25
         2         9.5223   -105.0539   -130.6456    -75.3924      134.08
         3        27.2710    109.6505     61.9574     66.2930       57.04
         4        10.0419      2.5978     -9.5993      1.0135       87.76
         5         2.6137      1.8450     -8.5857     -1.3757      103.81
         6        14.7019     -2.2649      4.6058      5.6809       49.25
         7        -2.9880      1.0540     -1.7921     -1.2420      105.10
         8        -7.0596     -2.4534     -9.6384     -6.3838      170.86
         9         3.2680      5.2261     -6.1417      0.7841       85.86
        10         3.6159      2.4108      1.3295      2.4521       37.52
        11         1.6817     -0.0668    -35.9030    -11.4294      105.09
        12        -0.6093      1.4981     -5.0627     -1.3913      113.02
        13        13.8889     -0.4570     -6.9531      2.1596       78.55
        14        -2.2770      5.8389     -3.5394      0.0075       90.00
        15        -0.5357      1.3982     -2.1081     -0.4152       93.96
 1/2[<0|r|b>*<b|rxdel|0> + (<0|rxdel|b>*<b|r|0>)*]
 Rotatory Strengths (R) in cgs (10**-40 erg-esu-cm/Gauss)
       state          XX          YY          ZZ     R(length)
         1        -3.3610    -65.1737      1.5663    -22.3228
         2      -252.0698     18.1072     -4.1846    -79.3824
         3       179.1931     -7.1407     37.2839     69.7788
         4        -2.0939      4.7596      0.7801      1.1486
         5        -9.3209      4.9347      0.0977     -1.4295
         6        -1.3435     19.4003     -1.0783      5.6595
         7        -0.2625     -4.7841      0.9911     -1.3518
         8        -0.0874    -19.6737      0.0642     -6.5656
         9        -4.9027      0.2382      6.5610      0.6322
        10        -0.0675      2.9336      3.5314      2.1325
        11       -40.2549     -4.3701      7.5707    -12.3514
        12        -2.3447     -0.3748     -0.9729     -1.2308
        13        -3.3314      8.5457      1.8255      2.3466
        14        -0.5647    -20.2094     20.3456     -0.1428
        15        -0.0800     -8.2128      6.6850     -0.5359
  1/2[<0|del|b>*<b|r|0> + (<0|r|b>*<b|del|0>)*] (Au)
       state          X           Y           Z        Dip. S.   Osc.(frdel)
         1        -0.0027     -0.0033     -0.0000      0.0060      0.0040
         2        -0.1607     -0.0047     -0.0001      0.1655      0.1104
         3        -0.0865     -0.0068     -0.0013      0.0946      0.0631
         4        -0.0276     -0.0674     -0.0000      0.0950      0.0633
         5        -0.0208     -0.0028     -0.0001      0.0237      0.0158
         6        -0.0002     -0.0113     -0.0001      0.0116      0.0077
         7        -0.0003     -0.0019     -0.0000      0.0022      0.0015
         8        -0.0000     -0.0339     -0.0001      0.0341      0.0227
         9        -0.0084     -0.0002     -0.0004      0.0091      0.0060
        10        -0.0001     -0.0007     -0.0002      0.0010      0.0007
        11        -0.0806     -0.0327     -0.0005      0.1138      0.0759
        12        -0.0050     -0.0004     -0.0001      0.0055      0.0037
        13        -0.0094     -0.0630     -0.0002      0.0726      0.0484
[...]
    15  C    0.000000  -0.000000  -0.000003   0.000013   0.000096  -0.000017
    16  C    0.000000   0.000005  -0.000016   0.000074   0.000454   0.000039
    17  C    0.000000   0.000110  -0.000456   0.000253  -0.002019   0.000132
    18  H    0.000344  -0.000177   0.000014  -0.000089  -0.000004   0.000015
    19  H   -0.000188   0.000227   0.000002   0.000041   0.000000   0.000000
    20  H    0.000005  -0.000126   0.000778  -0.000504  -0.000008   0.000003
    21  H    0.000054  -0.000218  -0.000031   0.000325   0.000396  -0.000884
    22  H   -0.000001   0.000002   0.000000  -0.000004  -0.000008   0.000104
    23  H    0.000000   0.000000  -0.000000  -0.000000   0.000000   0.000000
    24  H   -0.000000  -0.000000   0.000000  -0.000000  -0.000005   0.000061
    25  H    0.000000  -0.000002  -0.000003   0.000022   0.000827   0.000193
    26  H    0.000000  -0.000002  -0.000003   0.000025   0.000769  -0.001483
    27  H   -0.000000   0.000000   0.000000  -0.000000  -0.000005   0.000016
    28  H   -0.000000   0.000000  -0.000000  -0.000000   0.000001   0.000000
    29  H   -0.000000  -0.000000   0.000003  -0.000002  -0.000005  -0.000001
    30  H    0.000000  -0.000014  -0.000162  -0.000086   0.000045   0.000009
               7          8          9         10         11         12
     1  N    0.000112  -0.000010  -0.000000  -0.000000  -0.000005  -0.000002
     2  C   -0.000479  -0.000006  -0.000000   0.000004  -0.000009   0.000054
     3  C    0.000022   0.000003  -0.000000  -0.000000   0.000033   0.001123
     4  C    0.000898   0.000066   0.000009  -0.000002  -0.000798  -0.001893
     5  N    0.000330   0.000435   0.000058   0.000091  -0.003912  -0.061081
     6  C    0.013752  -0.001655  -0.004124   0.000939   0.017395   0.001486
     7  C    0.026590  -0.014575  -0.001968  -0.000665   0.001653   0.000234
     8  C   -0.014575   0.006897   0.010851   0.000282  -0.002215   0.000038
     9  C   -0.001968   0.010851   0.132062  -0.002718  -0.002304  -0.000015
    10  C   -0.000665   0.000282  -0.002718  -0.056132  -0.004921  -0.000182
    11  C    0.001653  -0.002215  -0.002304  -0.004921   0.105039  -0.002653
    12  C    0.000234   0.000038  -0.000015  -0.000182  -0.002653   0.175577
    13  C   -0.000025   0.000044   0.000037   0.000024  -0.004767   0.028258
    14  C   -0.000003  -0.000000  -0.000000   0.000009   0.000174   0.000140
    15  C    0.000000   0.000000   0.000000   0.000000   0.000036  -0.008924
    16  C   -0.000000  -0.000000   0.000000   0.000000   0.000033  -0.001556
    17  C   -0.000010  -0.000001  -0.000000  -0.000002  -0.000112   0.023177
    18  H    0.000012  -0.000018  -0.000001   0.000000  -0.000000   0.000000
    19  H    0.000000  -0.000000  -0.000000   0.000000   0.000000   0.000000
    20  H   -0.000001  -0.000000   0.000000   0.000000  -0.000000   0.000028
    21  H    0.000551   0.000249   0.000052  -0.000039   0.000099  -0.000017
    22  H    0.000433   0.000130  -0.000615  -0.000005  -0.000039  -0.000000
    23  H   -0.000118  -0.000370   0.001242  -0.000002  -0.000091   0.000000
    24  H   -0.000032   0.000058  -0.000498   0.000255  -0.000072   0.000015
    25  H   -0.000067  -0.000043   0.000041   0.000048   0.001314  -0.001491
    26  H   -0.000057   0.000043   0.000025   0.000017  -0.000578  -0.000729
    27  H    0.000000  -0.000000  -0.000000  -0.000000   0.000013   0.000178
    28  H    0.000000  -0.000000  -0.000000   0.000000   0.000000   0.000009
    29  H    0.000000   0.000000  -0.000000  -0.000000  -0.000000   0.000115
    30  H   -0.000000   0.000000   0.000000  -0.000000  -0.000002  -0.000542
              13         14         15         16         17         18
     1  N   -0.000000  -0.000000   0.000000   0.000000   0.000000   0.000344
     2  C   -0.000008  -0.000000  -0.000000   0.000005   0.000110  -0.000177
     3  C    0.000056   0.000001  -0.000003  -0.000016  -0.000456   0.000014
     4  C   -0.000739  -0.000010   0.000013   0.000074   0.000253  -0.000089
     5  N   -0.005121   0.000223   0.000096   0.000454  -0.002019  -0.000004
     6  C   -0.002702  -0.000080  -0.000017   0.000039   0.000132   0.000015
     7  C   -0.000025  -0.000003   0.000000  -0.000000  -0.000010   0.000012
     8  C    0.000044  -0.000000   0.000000  -0.000000  -0.000001  -0.000018
     9  C    0.000037  -0.000000   0.000000   0.000000  -0.000000  -0.000001
    10  C    0.000024   0.000009   0.000000   0.000000  -0.000002   0.000000
    11  C   -0.004767   0.000174   0.000036   0.000033  -0.000112  -0.000000
    12  C    0.028258   0.000140  -0.008924  -0.001556   0.023177   0.000000
    13  C    0.148873  -0.015752  -0.003843  -0.003531   0.002238   0.000000
    14  C   -0.015752  -0.083688   0.001930   0.000608  -0.001511   0.000000
    15  C   -0.003843   0.001930   0.280624   0.016810  -0.003089   0.000000
    16  C   -0.003531   0.000608   0.016810  -0.001702  -0.024015  -0.000000
    17  C    0.002238  -0.001511  -0.003089  -0.024015   0.048914  -0.000000
    18  H    0.000000   0.000000   0.000000  -0.000000  -0.000000  -0.000842
    19  H    0.000000   0.000000   0.000000   0.000000  -0.000000   0.000042
    20  H    0.000001  -0.000000  -0.000000  -0.000004   0.000031   0.000000
    21  H    0.000001   0.000000   0.000000   0.000000  -0.000004   0.000006
    22  H   -0.000001  -0.000000  -0.000000   0.000000   0.000000  -0.000001
    23  H    0.000000   0.000000  -0.000000  -0.000000   0.000000   0.000000
    24  H    0.000017  -0.000001  -0.000000  -0.000000   0.000000   0.000000
    25  H   -0.000794   0.000035   0.000027   0.000027  -0.000101  -0.000000
    26  H    0.002557   0.000152   0.000060  -0.000062  -0.000040   0.000000
    27  H    0.000096   0.000329  -0.000883   0.000088  -0.000052  -0.000000
    28  H   -0.000213  -0.000194   0.002395  -0.000607  -0.000232  -0.000000
    29  H   -0.000050   0.000017  -0.001039   0.000643   0.000367   0.000000
    30  H    0.000083  -0.000073   0.000089   0.000039   0.001349  -0.000000
              19         20         21         22         23         24
     1  N   -0.000188   0.000005   0.000054  -0.000001   0.000000  -0.000000
     2  C    0.000227  -0.000126  -0.000218   0.000002   0.000000  -0.000000
     3  C    0.000002   0.000778  -0.000031   0.000000  -0.000000   0.000000
     4  C    0.000041  -0.000504   0.000325  -0.000004  -0.000000  -0.000000
     5  N    0.000000  -0.000008   0.000396  -0.000008   0.000000  -0.000005
     6  C    0.000000   0.000003  -0.000884   0.000104   0.000000   0.000061
     7  C    0.000000  -0.000001   0.000551   0.000433  -0.000118  -0.000032
     8  C   -0.000000  -0.000000   0.000249   0.000130  -0.000370   0.000058
     9  C   -0.000000   0.000000   0.000052  -0.000615   0.001242  -0.000498
    10  C    0.000000   0.000000  -0.000039  -0.000005  -0.000002   0.000255
    11  C    0.000000  -0.000000   0.000099  -0.000039  -0.000091  -0.000072
    12  C    0.000000   0.000028  -0.000017  -0.000000   0.000000   0.000015
    13  C    0.000000   0.000001   0.000001  -0.000001   0.000000   0.000017
    14  C    0.000000  -0.000000   0.000000  -0.000000   0.000000  -0.000001
    15  C    0.000000  -0.000000   0.000000  -0.000000  -0.000000  -0.000000
    16  C    0.000000  -0.000004   0.000000   0.000000  -0.000000  -0.000000
    17  C   -0.000000   0.000031  -0.000004   0.000000   0.000000   0.000000
    18  H    0.000042   0.000000   0.000006  -0.000001   0.000000   0.000000
    19  H   -0.000662  -0.000003  -0.000000  -0.000000   0.000000   0.000000
    20  H   -0.000003  -0.004223  -0.000000   0.000000  -0.000000  -0.000000
    21  H   -0.000000  -0.000000  -0.001886  -0.000019   0.000003   0.000000
    22  H   -0.000000   0.000000  -0.000019  -0.000229   0.000047  -0.000003
    23  H    0.000000  -0.000000   0.000003   0.000047  -0.006529   0.000064
    24  H    0.000000  -0.000000   0.000000  -0.000003   0.000064   0.003082
    25  H   -0.000000   0.000000  -0.000001   0.000000   0.000002  -0.000031
    26  H    0.000000  -0.000000   0.000009  -0.000001   0.000000   0.000002
    27  H   -0.000000   0.000000  -0.000000   0.000000  -0.000000  -0.000000
    28  H   -0.000000   0.000000  -0.000000   0.000000  -0.000000  -0.000000
    29  H    0.000000  -0.000000   0.000000  -0.000000   0.000000   0.000000
    30  H    0.000000   0.000000  -0.000000  -0.000000   0.000000   0.000000
              25         26         27         28         29         30
     1  N    0.000000   0.000000  -0.000000  -0.000000  -0.000000   0.000000
     2  C   -0.000002  -0.000002   0.000000   0.000000  -0.000000  -0.000014
     3  C   -0.000003  -0.000003   0.000000  -0.000000   0.000003  -0.000162
     4  C    0.000022   0.000025  -0.000000  -0.000000  -0.000002  -0.000086
     5  N    0.000827   0.000769  -0.000005   0.000001  -0.000005   0.000045
     6  C    0.000193  -0.001483   0.000016   0.000000  -0.000001   0.000009
     7  C   -0.000067  -0.000057   0.000000   0.000000   0.000000  -0.000000
     8  C   -0.000043   0.000043  -0.000000  -0.000000   0.000000   0.000000
     9  C    0.000041   0.000025  -0.000000  -0.000000  -0.000000   0.000000
    10  C    0.000048   0.000017  -0.000000   0.000000  -0.000000  -0.000000
    11  C    0.001314  -0.000578   0.000013   0.000000  -0.000000  -0.000002
    12  C   -0.001491  -0.000729   0.000178   0.000009   0.000115  -0.000542
    13  C   -0.000794   0.002557   0.000096  -0.000213  -0.000050   0.000083
    14  C    0.000035   0.000152   0.000329  -0.000194   0.000017  -0.000073
    15  C    0.000027   0.000060  -0.000883   0.002395  -0.001039   0.000089
    16  C    0.000027  -0.000062   0.000088  -0.000607   0.000643   0.000039
    17  C   -0.000101  -0.000040  -0.000052  -0.000232   0.000367   0.001349
    18  H   -0.000000   0.000000  -0.000000  -0.000000   0.000000  -0.000000
    19  H   -0.000000   0.000000  -0.000000  -0.000000   0.000000   0.000000
    20  H    0.000000  -0.000000   0.000000   0.000000  -0.000000   0.000000
    21  H   -0.000001   0.000009  -0.000000  -0.000000   0.000000  -0.000000
    22  H    0.000000  -0.000001   0.000000   0.000000  -0.000000  -0.000000
    23  H    0.000002   0.000000  -0.000000  -0.000000   0.000000   0.000000
    24  H   -0.000031   0.000002  -0.000000  -0.000000   0.000000   0.000000
    25  H   -0.004104  -0.000036   0.000002   0.000000  -0.000000  -0.000000
    26  H   -0.000036  -0.006557  -0.000006   0.000005   0.000000   0.000004
    27  H    0.000002  -0.000006   0.003752   0.000117  -0.000003  -0.000001
    28  H    0.000000   0.000005   0.000117  -0.013750   0.000105   0.000004
    29  H   -0.000000   0.000000  -0.000003   0.000105  -0.000358   0.000063
    30  H   -0.000000   0.000004  -0.000001   0.000004   0.000063  -0.003761
 Mulliken charges and spin densities:
               1          2
     1  N    0.073028   0.017759
     2  C    0.117697   0.004782
     3  C   -0.084586   0.108474
     4  C    0.222984  -0.034714
     5  N   -0.102313   0.174717
     6  C    0.039818   0.046319
     7  C   -0.023224   0.026586
     8  C    0.010727   0.000203
     9  C    0.064658   0.132135
    10  C    0.007812  -0.062999
    11  C    0.037650   0.103310
    12  C    0.091883   0.151348
    13  C    0.047397   0.144741
    14  C    0.014058  -0.097695
    15  C    0.085386   0.284281
    16  C    0.022800  -0.012673
    17  C    0.008961   0.044926
    18  H    0.204934  -0.000697
    19  H    0.218816  -0.000541
    20  H    0.131774  -0.004024
    21  H    0.046834  -0.001355
    22  H    0.082071  -0.000207
    23  H    0.091227  -0.005750
    24  H    0.084786   0.002913
    25  H    0.067237  -0.004136
    26  H    0.087835  -0.005887
    27  H    0.094247   0.003641
    28  H    0.104799  -0.012359
    29  H    0.094017  -0.000144
    30  H    0.056688  -0.002954
 Sum of Mulliken charges =   2.00000   1.00000
 Mulliken charges and spin densities with hydrogens summed into heavy atoms:
               1          2
     1  N    0.496778   0.016520
     2  C    0.117697   0.004782
     3  C    0.047187   0.104450
     4  C    0.222984  -0.034714
     5  N   -0.102313   0.174717
     6  C    0.039818   0.046319
     7  C    0.023609   0.025231
     8  C    0.092798  -0.000004
     9  C    0.155886   0.126385
    10  C    0.092598  -0.060086
    11  C    0.104887   0.099175
    12  C    0.091883   0.151348
    13  C    0.135232   0.138854
    14  C    0.108305  -0.094054
    15  C    0.190184   0.271922
    16  C    0.116817  -0.012817
    17  C    0.065649   0.041973
 Electronic spatial extent (au):  <R**2>=           4014.2368
 Charge=              2.0000 electrons
 Dipole moment (field-independent basis, Debye):
    X=             -1.7084    Y=              6.3759    Z=              0.1990  Tot=              6.6038
 Quadrupole moment (field-independent basis, Debye-Ang):
   XX=            -12.2796   YY=            -26.1441   ZZ=            -88.2079
   XY=            -11.6429   XZ=              1.2253   YZ=              1.0396
 Traceless Quadrupole moment (field-independent basis, Debye-Ang):
   XX=             29.9309   YY=             16.0665   ZZ=            -45.9974
   XY=            -11.6429   XZ=              1.2253   YZ=              1.0396
 Octapole moment (field-independent basis, Debye-Ang**2):
  XXX=             41.2007  YYY=            128.3920  ZZZ=              1.3129  XYY=            -86.2234
  XXY=              5.0597  XXZ=             -3.2562  XZZ=             -4.9809  YZZ=             -6.4863
  YYZ=             10.4070  XYZ=             13.2346
 Hexadecapole moment (field-independent basis, Debye-Ang**3):
 XXXX=          -1800.0091 YYYY=          -1121.5677 ZZZZ=           -295.5938 XXXY=           -177.2703
 XXXZ=             56.9505 YYYX=           -175.1075 YYYZ=            -33.0455 ZZZX=              8.6548
 ZZZY=             -5.4781 XXYY=           -388.8281 XXZZ=           -534.0711 YYZZ=           -340.6494
 XXYZ=             75.3428 YYXZ=            -57.1378 ZZXY=             -0.1249
 N-N= 1.083629498401D+03 E-N=-3.724521309878D+03  KE= 6.792870982091D+02
 Leave Link  601 at Wed May 11 07:34:31 2022, MaxMem=  6442450944 cpu:               2.0 elap:               0.2
 (Enter /mnt/gpfs3_amd/share/apps/amd/gaussian/g16-A.03/g16/l9999.exe)
 Electronic transition elements 
                 1             2             3             4             5 
      1  -0.687089D+03 -0.687080D+03 -0.687078D+03 -0.687031D+03 -0.687008D+03
      2  -0.283263D+00  0.188468D+01  0.135713D+01  0.548167D+00  0.420242D+00
      3  -0.260496D+00  0.334857D+00  0.369231D+00 -0.847392D+00 -0.151854D+00
      4  -0.644397D-02 -0.374957D-01 -0.151931D+00 -0.968724D-02 -0.348762D-01
      5   0.961814D-02 -0.852911D-01 -0.637485D-01 -0.503099D-01 -0.496072D-01
      6   0.126686D-01 -0.140133D-01 -0.184830D-01  0.795774D-01  0.181503D-01
      7   0.292406D-05  0.289184D-02  0.861091D-02  0.527661D-03  0.412475D-02
      8  -0.167788D-01  0.189130D+00 -0.186715D+00  0.540160D-02  0.313644D-01
      9  -0.353794D+00 -0.764664D-01  0.273479D-01  0.794271D-02  0.459529D-01
     10   0.343720D+00 -0.157817D+00  0.347019D+00  0.113874D+00  0.396018D-02
     11   0.353672D-02 -0.169744D+00 -0.124086D+00 -0.412964D+00 -0.189264D+00
     12   0.199782D-02  0.100791D+00  0.756986D-01  0.282768D+00  0.922023D-01
     13  -0.927755D-02  0.439338D-02  0.143204D-01 -0.165976D-01  0.151033D-01
     14  -0.399751D-01  0.165328D+00  0.144948D+00 -0.172267D+00  0.147089D-01
     15  -0.630100D-02  0.152146D-01  0.115973D-01 -0.273409D-01  0.962942D-03
     16   0.633072D-02 -0.310938D-01 -0.348221D-01 -0.166797D-01 -0.449737D-01
                 6             7             8             9            10 
      1  -0.687000D+03 -0.686994D+03 -0.686987D+03 -0.686987D+03 -0.686985D+03
      2   0.395305D-01  0.446197D-01 -0.143114D-01 -0.236981D+00  0.222740D-01
      3   0.293982D+00  0.120837D+00  0.495923D+00  0.313512D-01  0.726812D-01
      4  -0.248402D-01  0.952084D-02 -0.287971D-01  0.533262D-01  0.348275D-01
      5  -0.540967D-02 -0.654977D-02  0.310504D-02  0.354913D-01 -0.324136D-02
      6  -0.384418D-01 -0.159548D-01 -0.683540D-01 -0.700484D-02 -0.973965D-02
      7   0.376663D-02 -0.160295D-02  0.429033D-02 -0.825496D-02 -0.667884D-02
      8   0.480618D-01  0.831879D-02 -0.863753D-02 -0.292551D-01  0.428355D-02
      9  -0.933183D-01  0.559859D-01  0.560985D-01 -0.107449D-01 -0.570769D-01
     10  -0.613840D-01 -0.147205D+00  0.315372D-02 -0.173984D+00 -0.143384D+00
     11   0.385721D-01  0.273283D-01  0.673229D-01 -0.236427D+00  0.121995D+00
     12  -0.790606D-01 -0.641797D-02 -0.186768D+00 -0.189845D+00  0.150127D-01
     13   0.115373D-01  0.103549D-01  0.313275D-01  0.137039D-01 -0.668301D-02
     14   0.135068D+00  0.603534D-01  0.216018D+00  0.260953D-01  0.139942D-01
     15   0.384173D-01 -0.242883D-01  0.840377D-03  0.266538D-02  0.556909D-02
     16  -0.327287D-01 -0.190010D-01 -0.147482D-01  0.419579D-01  0.167447D-01
                11            12            13            14            15 
      1  -0.686981D+03 -0.686973D+03 -0.686965D+03 -0.686960D+03 -0.686960D+03
      2   0.754002D+00  0.171656D+00  0.242457D+00 -0.747485D-01 -0.298918D-02
      3  -0.482776D+00  0.485048D-01 -0.634726D+00  0.274753D+00  0.170255D+00
      4  -0.528899D-01 -0.188626D-01  0.394641D-01  0.119204D+00 -0.854627D-01
      5  -0.106898D+00 -0.292421D-01 -0.387349D-01  0.128575D-01 -0.454230D-04
      6   0.677948D-01 -0.888829D-02  0.992771D-01 -0.448553D-01 -0.283129D-01
      7   0.884221D-02  0.349677D-02 -0.554928D-02 -0.199220D-01  0.147488D-01
      8   0.754963D-01  0.193152D-01  0.194297D-01 -0.106834D-01 -0.378595D-01
      9  -0.128003D-01  0.109272D-01  0.190388D-01  0.104014D+00  0.682131D-01
     10   0.202414D+00 -0.729376D-01 -0.654115D-01 -0.241356D+00  0.110613D+00
     11  -0.589158D+00 -0.131328D+00 -0.495884D+00  0.588728D-02 -0.427681D-01
     12   0.353479D+00 -0.347228D-01  0.388870D+00 -0.871324D-01 -0.259694D-01
     13  -0.114590D-01  0.232676D-01 -0.275923D-01  0.118323D-01  0.157851D-01
     14   0.104742D+00  0.402921D-02 -0.125380D+00 -0.118259D+00  0.654886D-01
     15   0.169180D-01  0.791406D-02 -0.350987D-01 -0.798876D-01 -0.325807D-01
     16  -0.671566D-01 -0.510297D-01 -0.225557D-01  0.362867D-01 -0.462541D-01

 Test job not archived.
 1\1\GINC-ROME019\SP\ULC-wHPBE TD-FC\def2SVP\C15H13N2(2+,2)\RDU230\11-M
 ay-2022\0\\#P LC-wHPBE/Def2SVP iop(3/107=0225700000, 3/108=0225700000)
  td=(50-50,nstates=15)\\H13 C15 N2\\2,2\N,0,-2.574002,3.056798,0.18455
 5\C,0,-1.326958,2.719512,0.03643\C,0,0.007265,3.070413,-0.172528\C,0,-
 0.3107,1.752185,-0.051933\N,0,0.049956,0.442556,-0.030581\C,0,-0.97229
 5,-0.557288,0.024026\C,0,-2.095518,-0.471064,-0.823239\C,0,-3.068088,-
 1.46327,-0.748155\C,0,-2.929794,-2.52627,0.166683\C,0,-1.812505,-2.602
 211,1.007596\C,0,-0.825265,-1.619832,0.945373\C,0,1.402348,0.062636,-0
 .056606\C,0,1.751495,-1.154509,-0.720943\C,0,3.077336,-1.556752,-0.753
 303\C,0,4.06412,-0.764585,-0.139293\C,0,3.718359,0.443921,0.51667\C,0,
 2.401815,0.865356,0.556678\H,0,-3.300503,2.356233,0.355291\H,0,-2.8581
 99,4.041775,0.157988\H,0,0.752823,3.862221,-0.315605\H,0,-2.17415,0.32
 5442,-1.576924\H,0,-3.934907,-1.430605,-1.421712\H,0,-3.707077,-3.3008
 33,0.219576\H,0,-1.718101,-3.42428,1.729215\H,0,0.031017,-1.642314,1.6
 33546\H,0,0.978758,-1.727429,-1.250542\H,0,3.358839,-2.476329,-1.28304
 5\H,0,5.116849,-1.07915,-0.173469\H,0,4.498875,1.036258,1.012711\H,0,2
 .134402,1.774092,1.110425\\Version=AM64L-G16RevA.03\State=2-A\HF=-687.
 1287799\S2=0.766889\S2-1=0.\S2A=0.750213\RMSD=6.637e-09\PG=C01 [X(C15H
 13N2)]\\@


 AN AIRPLANE IS A COLLECTION OF SPARE PARTS
 FLYING IN CLOSE FORMATION.
 Job cpu time:       0 days  5 hours 54 minutes 30.1 seconds.
 Elapsed time:       0 days  0 hours 22 minutes 21.5 seconds.
 File lengths (MBytes):  RWF=   1352 Int=      0 D2E=      0 Chk=     72 Scr=     16
 Normal termination of Gaussian 16 at Wed May 11 07:34:31 2022.
