 Entering Gaussian System, Link 0=g16
 Input=/work/08504/tg878040/stampede2/d3tales/runfiles//06IVBN/gaussian/tddft/energy/singlet_triplet_groundState.com
 Output=/work/08504/tg878040/stampede2/d3tales/runfiles//06IVBN/gaussian/tddft/energy/singlet_triplet_groundState.log
 Initial command:
 /home1/apps/gaussian/16rA.03/g16/l1.exe "/tmp/Gau-196339.inp" -scrdir="/tmp/"
 Entering Link 1 = /home1/apps/gaussian/16rA.03/g16/l1.exe PID=    196340.
  
 Copyright (c) 1988,1990,1992,1993,1995,1998,2003,2009,2016,
            Gaussian, Inc.  All Rights Reserved.
  
 This is part of the Gaussian(R) 16 program.  It is based on
 the Gaussian(R) 09 system (copyright 2009, Gaussian, Inc.),
 the Gaussian(R) 03 system (copyright 2003, Gaussian, Inc.),
 the Gaussian(R) 98 system (copyright 1998, Gaussian, Inc.),
 the Gaussian(R) 94 system (copyright 1995, Gaussian, Inc.),
 the Gaussian 92(TM) system (copyright 1992, Gaussian, Inc.),
 the Gaussian 90(TM) system (copyright 1990, Gaussian, Inc.),
 the Gaussian 88(TM) system (copyright 1988, Gaussian, Inc.),
 the Gaussian 86(TM) system (copyright 1986, Carnegie Mellon
 University), and the Gaussian 82(TM) system (copyright 1983,
 Carnegie Mellon University). Gaussian is a federally registered
 trademark of Gaussian, Inc.
  
 This software contains proprietary and confidential information,
 including trade secrets, belonging to Gaussian, Inc.
  
 This software is provided under written license and may be
 used, copied, transmitted, or stored only in accord with that
 written license.
  
 The following legend is applicable only to US Government
 contracts under FAR:
  
                    RESTRICTED RIGHTS LEGEND
  
 Use, reproduction and disclosure by the US Government is
 subject to restrictions as set forth in subparagraphs (a)
 and (c) of the Commercial Computer Software - Restricted
 Rights clause in FAR 52.227-19.
  
 Gaussian, Inc.
 340 Quinnipiac St., Bldg. 40, Wallingford CT 06492
  
  
 ---------------------------------------------------------------
 Warning -- This program may not be used in any manner that
 competes with the business of Gaussian, Inc. or will provide
 assistance to any competitor of Gaussian, Inc.  The licensee
 of this program is prohibited from giving any competitor of
 Gaussian, Inc. access to this program.  By using this program,
 the user acknowledges that Gaussian, Inc. is engaged in the
 business of creating and licensing software in the field of
 computational chemistry and represents and warrants to the
 licensee that it is not a competitor of Gaussian, Inc. and that
 it will not use this program in any manner prohibited above.
 ---------------------------------------------------------------
  

 Cite this work as:
 Gaussian 16, Revision A.03,
 M. J. Frisch, G. W. Trucks, H. B. Schlegel, G. E. Scuseria, 
 M. A. Robb, J. R. Cheeseman, G. Scalmani, V. Barone, 
 G. A. Petersson, H. Nakatsuji, X. Li, M. Caricato, A. V. Marenich, 
 J. Bloino, B. G. Janesko, R. Gomperts, B. Mennucci, H. P. Hratchian, 
 J. V. Ortiz, A. F. Izmaylov, J. L. Sonnenberg, D. Williams-Young, 
 F. Ding, F. Lipparini, F. Egidi, J. Goings, B. Peng, A. Petrone, 
 T. Henderson, D. Ranasinghe, V. G. Zakrzewski, J. Gao, N. Rega, 
 G. Zheng, W. Liang, M. Hada, M. Ehara, K. Toyota, R. Fukuda, 
 J. Hasegawa, M. Ishida, T. Nakajima, Y. Honda, O. Kitao, H. Nakai, 
 T. Vreven, K. Throssell, J. A. Montgomery, Jr., J. E. Peralta, 
 F. Ogliaro, M. J. Bearpark, J. J. Heyd, E. N. Brothers, K. N. Kudin, 
 V. N. Staroverov, T. A. Keith, R. Kobayashi, J. Normand, 
 K. Raghavachari, A. P. Rendell, J. C. Burant, S. S. Iyengar, 
 J. Tomasi, M. Cossi, J. M. Millam, M. Klene, C. Adamo, R. Cammi, 
 J. W. Ochterski, R. L. Martin, K. Morokuma, O. Farkas, 
 J. B. Foresman, and D. J. Fox, Gaussian, Inc., Wallingford CT, 2016.
 
 ******************************************
 Gaussian 16:  ES64L-G16RevA.03 25-Dec-2016
                11-May-2022 
 ******************************************
 %chk=/work/08504/tg878040/stampede2/d3tales/runfiles//06IVBN/gaussian/tddft/ener
 gy/singlet_triplet_groundState.chk
 %mem=48GB
 %nprocshared=16
 Will use up to   16 processors via shared memory.
 ----------------------------------------------------------------------
 #P LC-wHPBE/Def2SVP iop(3/107=0225700000, 3/108=0225700000) td=(50-50,
 nstates=15)
 ----------------------------------------------------------------------
 1/38=1,172=1/1;
 2/12=2,17=6,18=5,40=1/2;
 3/5=43,7=101,11=9,25=1,30=1,74=-71,107=225700000,108=225700000/1,2,3,8;
 4//1;
 5/5=2,38=5/2;
 8/6=1,10=1,108=15/1;
 9/41=15,42=1,48=2,70=2/14;
 6/7=2,8=2,9=2,10=2/1;
 99/5=1,9=1/99;
 Leave Link    1 at Wed May 11 05:27:01 2022, MaxMem=  6442450944 cpu:               0.6 elap:               0.0
 (Enter /home1/apps/gaussian/16rA.03/g16/l101.exe)
 ----------
 H13 C15 N2
 ----------
 Symbolic Z-matrix:
 Charge =  1 Multiplicity = 1
 N                    -2.51975   3.0203    0.10729 
 C                    -1.24603   2.71101   0.00776 
 C                     0.0773    3.05123  -0.13174 
 C                    -0.25209   1.71209  -0.04732 
 N                     0.05695   0.43377  -0.02143 
 C                    -1.00473  -0.54949   0.03888 
 C                    -2.07226  -0.47193  -0.86386 
 C                    -3.1091   -1.40791  -0.77965 
 C                    -3.06508  -2.41833   0.18606 
 C                    -1.98245  -2.49626   1.07 
 C                    -0.94662  -1.5612    1.00372 
 C                     1.44405   0.01482  -0.05653 
 C                     1.83055  -0.97823  -0.96348 
 C                     3.16876  -1.37651  -1.00309 
 C                     4.10781  -0.7851   -0.15024 
 C                     3.70811   0.20354   0.75419 
 C                     2.36962   0.60438   0.8107 
 H                    -3.22062   2.28831   0.22238 
 H                    -2.82815   3.99247   0.09079 
 H                     0.8437    3.82429  -0.23017 
 H                    -2.07822   0.2953   -1.65122 
 H                    -3.94521  -1.3587   -1.48972 
 H                    -3.87489  -3.15721   0.24408 
 H                    -1.94449  -3.29225   1.82515 
 H                    -0.09652  -1.61426   1.69625 
 H                     1.08967  -1.43506  -1.63246 
 H                     3.48099  -2.15393  -1.71253 
 H                     5.15833  -1.10147  -0.18775 
 H                     4.44023   0.66041   1.43275 
 H                     2.04774   1.36104   1.53905 
 
 ITRead=  0  0  0  0  0  0  0  0  0  0  0  0  0  0  0  0  0  0  0  0
 ITRead=  0  0  0  0  0  0  0  0  0  0
 MicOpt= -1 -1 -1 -1 -1 -1 -1 -1 -1 -1 -1 -1 -1 -1 -1 -1 -1 -1 -1 -1
 MicOpt= -1 -1 -1 -1 -1 -1 -1 -1 -1 -1
 NAtoms=     30 NQM=       30 NQMF=       0 NMMI=      0 NMMIF=      0
                NMic=       0 NMicF=      0.
                    Isotopes and Nuclear Properties:
 (Nuclear quadrupole moments (NQMom) in fm**2, nuclear magnetic moments (NMagM)
  in nuclear magnetons)

  Atom         1           2           3           4           5           6           7           8           9          10
 IAtWgt=          14          12          12          12          14          12          12          12          12          12
 AtmWgt=  14.0030740  12.0000000  12.0000000  12.0000000  14.0030740  12.0000000  12.0000000  12.0000000  12.0000000  12.0000000
 NucSpn=           2           0           0           0           2           0           0           0           0           0
 AtZEff=  -0.0000000  -0.0000000  -0.0000000  -0.0000000  -0.0000000  -0.0000000  -0.0000000  -0.0000000  -0.0000000  -0.0000000
 NQMom=    2.0440000   0.0000000   0.0000000   0.0000000   2.0440000   0.0000000   0.0000000   0.0000000   0.0000000   0.0000000
 NMagM=    0.4037610   0.0000000   0.0000000   0.0000000   0.4037610   0.0000000   0.0000000   0.0000000   0.0000000   0.0000000
 AtZNuc=   7.0000000   6.0000000   6.0000000   6.0000000   7.0000000   6.0000000   6.0000000   6.0000000   6.0000000   6.0000000

  Atom        11          12          13          14          15          16          17          18          19          20
 IAtWgt=          12          12          12          12          12          12          12           1           1           1
 AtmWgt=  12.0000000  12.0000000  12.0000000  12.0000000  12.0000000  12.0000000  12.0000000   1.0078250   1.0078250   1.0078250
 NucSpn=           0           0           0           0           0           0           0           1           1           1
 AtZEff=  -0.0000000  -0.0000000  -0.0000000  -0.0000000  -0.0000000  -0.0000000  -0.0000000  -0.0000000  -0.0000000  -0.0000000
 NQMom=    0.0000000   0.0000000   0.0000000   0.0000000   0.0000000   0.0000000   0.0000000   0.0000000   0.0000000   0.0000000
 NMagM=    0.0000000   0.0000000   0.0000000   0.0000000   0.0000000   0.0000000   0.0000000   2.7928460   2.7928460   2.7928460
 AtZNuc=   6.0000000   6.0000000   6.0000000   6.0000000   6.0000000   6.0000000   6.0000000   1.0000000   1.0000000   1.0000000

  Atom        21          22          23          24          25          26          27          28          29          30
 IAtWgt=           1           1           1           1           1           1           1           1           1           1
 AtmWgt=   1.0078250   1.0078250   1.0078250   1.0078250   1.0078250   1.0078250   1.0078250   1.0078250   1.0078250   1.0078250
 NucSpn=           1           1           1           1           1           1           1           1           1           1
 AtZEff=  -0.0000000  -0.0000000  -0.0000000  -0.0000000  -0.0000000  -0.0000000  -0.0000000  -0.0000000  -0.0000000  -0.0000000
 NQMom=    0.0000000   0.0000000   0.0000000   0.0000000   0.0000000   0.0000000   0.0000000   0.0000000   0.0000000   0.0000000
 NMagM=    2.7928460   2.7928460   2.7928460   2.7928460   2.7928460   2.7928460   2.7928460   2.7928460   2.7928460   2.7928460
 AtZNuc=   1.0000000   1.0000000   1.0000000   1.0000000   1.0000000   1.0000000   1.0000000   1.0000000   1.0000000   1.0000000
 Leave Link  101 at Wed May 11 05:27:02 2022, MaxMem=  6442450944 cpu:               3.3 elap:               0.3
 (Enter /home1/apps/gaussian/16rA.03/g16/l202.exe)
                          Input orientation:                          
 ---------------------------------------------------------------------
 Center     Atomic      Atomic             Coordinates (Angstroms)
 Number     Number       Type             X           Y           Z
 ---------------------------------------------------------------------
      1          7           0       -2.519752    3.020298    0.107294
      2          6           0       -1.246030    2.711008    0.007759
      3          6           0        0.077300    3.051229   -0.131739
      4          6           0       -0.252090    1.712085   -0.047322
      5          7           0        0.056953    0.433770   -0.021433
      6          6           0       -1.004734   -0.549494    0.038879
      7          6           0       -2.072259   -0.471928   -0.863862
      8          6           0       -3.109100   -1.407910   -0.779653
      9          6           0       -3.065084   -2.418333    0.186056
     10          6           0       -1.982448   -2.496264    1.070002
     11          6           0       -0.946615   -1.561202    1.003719
     12          6           0        1.444051    0.014822   -0.056527
     13          6           0        1.830552   -0.978230   -0.963483
     14          6           0        3.168758   -1.376510   -1.003088
     15          6           0        4.107812   -0.785095   -0.150235
     16          6           0        3.708105    0.203537    0.754186
     17          6           0        2.369620    0.604384    0.810702
     18          1           0       -3.220616    2.288308    0.222379
     19          1           0       -2.828150    3.992470    0.090787
     20          1           0        0.843701    3.824287   -0.230168
     21          1           0       -2.078219    0.295297   -1.651216
     22          1           0       -3.945206   -1.358704   -1.489720
     23          1           0       -3.874893   -3.157207    0.244083
     24          1           0       -1.944487   -3.292252    1.825150
     25          1           0       -0.096521   -1.614263    1.696246
     26          1           0        1.089668   -1.435062   -1.632456
     27          1           0        3.480987   -2.153931   -1.712530
     28          1           0        5.158333   -1.101465   -0.187746
     29          1           0        4.440228    0.660409    1.432750
     30          1           0        2.047740    1.361038    1.539049
 ---------------------------------------------------------------------
                    Distance matrix (angstroms):
                    1          2          3          4          5
     1  N    0.000000
     2  C    1.314510   0.000000
     3  C    2.608213   1.373467   0.000000
     4  C    2.622521   1.410247   1.381641   0.000000
     5  N    3.653232   2.623820   2.619861   1.315396   0.000000
     6  C    3.878579   3.269567   3.763657   2.385088   1.448318
     7  C    3.652265   3.401979   4.191568   2.957983   2.462421
     8  C    4.554452   4.588740   5.518773   4.293388   3.740398
     9  C    5.466470   5.445263   6.315986   5.002775   4.233752
    10  C    5.625652   5.365292   6.038329   4.685377   3.733026
    11  C    4.926305   4.396972   4.859237   3.507344   2.457234
    12  C    4.977093   3.809211   3.330681   2.399517   1.449410
    13  C    6.004992   4.900933   4.472385   3.523428   2.454966
    14  C    7.274889   6.100817   5.470031   4.706921   3.731500
    15  C    7.646695   6.396196   5.564418   5.025460   4.232219
    16  C    6.865771   5.602501   4.698612   4.312920   3.739720
    17  C    5.498853   4.260928   3.482812   2.972637   2.463734
    18  H    1.019933   2.030696   3.403483   3.035938   3.773753
    19  H    1.020049   2.037681   3.062204   3.443155   4.582658
    20  H    3.474636   2.379701   1.093013   2.386543   3.486854
    21  H    3.273063   3.046374   3.814477   2.813274   2.689670
    22  H    4.874221   5.107891   6.121452   5.014914   4.624511
    23  H    6.325874   6.434494   7.369243   6.076152   5.331513
    24  H    6.567362   6.311092   6.939509   5.604797   4.615070
    25  H    5.465892   4.783339   5.013837   3.758833   2.677390
    26  H    5.992068   5.033457   4.837752   3.770610   2.674776
    27  H    8.129777   6.997979   6.416983   5.626265   4.613027
    28  H    8.719459   7.455806   6.562385   6.099874   5.329980
    29  H    7.467746   6.210401   5.215246   5.031350   4.623755
    30  H    5.066068   3.875073   3.087218   2.815852   2.694098
                    6          7          8          9         10
     6  C    0.000000
     7  C    1.400203   0.000000
     8  C    2.415622   1.399354   0.000000
     9  C    2.785545   2.424154   1.398387   0.000000
    10  C    2.410198   2.801041   2.423857   1.399834   0.000000
    11  C    1.399231   2.437509   2.807179   2.427171   1.397027
    12  C    2.514777   3.640488   4.824755   5.129463   4.394942
    13  C    3.037662   3.936775   4.961711   5.230926   4.580225
    14  C    4.380375   5.320330   6.281911   6.431193   5.664492
    15  C    5.121464   6.229014   7.271030   7.364170   6.442697
    16  C    4.825927   6.040442   7.171033   7.285126   6.306430
    17  C    3.648755   4.867535   6.049374   6.250041   5.349930
    18  H    3.605125   3.180809   3.831257   4.709350   5.014345
    19  H    4.894587   4.627480   5.477290   6.415887   6.616475
    20  H    4.755950   5.230856   6.580460   7.377137   7.044638
    21  H    2.173123   1.099362   2.173304   3.422464   3.899617
    22  H    3.411424   2.164717   1.098039   2.169252   3.420327
    23  H    3.883309   3.418736   2.166683   1.097767   2.168026
    24  H    3.405381   3.898889   3.419366   2.169355   1.097855
    25  H    2.169205   3.429668   3.904906   3.426305   2.174127
    26  H    2.822076   3.393545   4.284584   4.640665   4.226976
    27  H    5.075760   5.864121   6.697466   6.820966   6.140749
    28  H    6.191884   7.289370   8.294258   8.336573   7.383641
    29  H    5.749292   6.997793   8.134189   8.207473   7.165678
    30  H    3.901056   5.109612   6.295749   6.500400   5.598321
                   11         12         13         14         15
    11  C    0.000000
    12  C    3.053401   0.000000
    13  C    3.452882   1.399323   0.000000
    14  C    4.582323   2.409647   1.396779   0.000000
    15  C    5.242250   2.782853   2.425817   1.399626   0.000000
    16  C    4.984274   2.412221   2.805738   2.423934   1.398262
    17  C    3.965405   1.398695   2.437826   2.802213   2.423915
    18  H    4.538755   5.196696   6.131137   7.467045   7.955533
    19  H    5.934382   5.839100   6.893682   8.123141   8.425603
    20  H    5.807857   3.860388   4.957398   5.749051   5.648647
    21  H    3.431588   3.876607   4.168134   5.544887   6.456560
    22  H    3.905098   5.743231   5.812148   7.130611   8.183786
    23  H    3.420393   6.200266   6.225613   7.371522   8.337025
    24  H    2.160331   5.095060   5.232790   6.149331   6.842390
    25  H    1.097756   2.845961   3.345490   4.243227   4.666201
    26  H    3.333433   2.170554   1.097784   2.173050   3.424709
    27  H    5.228097   3.405135   2.160389   1.097806   2.169651
    28  H    6.237094   3.880619   3.419222   2.167681   1.097767
    29  H    5.842748   3.407610   3.903521   3.420377   2.169291
    30  H    4.218083   2.173155   3.432494   3.900424   3.421033
                   16         17         18         19         20
    16  C    0.000000
    17  C    1.398361   0.000000
    18  H    7.255085   5.867918   0.000000
    19  H    7.584111   6.246136   1.753714   0.000000
    20  H    4.720550   3.712090   4.368375   3.689687   0.000000
    21  H    6.267051   5.093118   2.964375   4.155245   4.796954
    22  H    8.127046   7.001620   4.093533   5.690420   7.168228
    23  H    8.310034   7.311947   5.484723   7.227520   8.439864
    24  H    6.731961   5.901220   5.944748   7.540295   7.914762
    25  H    4.320538   3.433429   5.211748   6.440089   5.845760
    26  H    3.903496   3.430253   5.990196   6.912089   5.448639
    27  H    3.419638   3.900018   8.269755   8.990851   6.700132
    28  H    2.166432   3.418149   9.047958   9.476796   6.548350
    29  H    1.097809   2.162753   7.924871   8.107578   5.070545
    30  H    2.170859   1.098463   5.508995   5.726797   3.263041
                   21         22         23         24         25
    21  H    0.000000
    22  H    2.499488   0.000000
    23  H    4.328970   2.499126   0.000000
    24  H    4.997351   4.327799   2.498895   0.000000
    25  H    4.333480   5.002806   4.331922   2.499448   0.000000
    26  H    3.609709   5.037476   5.579789   4.960876   3.538278
    27  H    6.075134   7.471972   7.677491   6.576224   4.970871
    28  H    7.514012   9.199768   9.274251   7.700737   5.605879
    29  H    7.220409   9.106764   9.226503   7.519448   5.081895
    30  H    5.323263   7.244711   7.561022   6.137820   3.670829
                   26         27         28         29         30
    26  H    0.000000
    27  H    2.498318   0.000000
    28  H    4.330417   2.499228   0.000000
    29  H    5.001274   4.328214   2.499176   0.000000
    30  H    4.335265   4.998197   4.326838   2.495231   0.000000
 Stoichiometry    C15H13N2(1+)
 Framework group  C1[X(C15H13N2)]
 Deg. of freedom    84
 Full point group                 C1      NOp   1
 Largest Abelian subgroup         C1      NOp   1
 Largest concise Abelian subgroup C1      NOp   1
                         Standard orientation:                         
 ---------------------------------------------------------------------
 Center     Atomic      Atomic             Coordinates (Angstroms)
 Number     Number       Type             X           Y           Z
 ---------------------------------------------------------------------
      1          7           0       -2.519752    3.020298    0.107294
      2          6           0       -1.246030    2.711008    0.007759
      3          6           0        0.077300    3.051229   -0.131739
      4          6           0       -0.252090    1.712085   -0.047322
      5          7           0        0.056953    0.433770   -0.021433
      6          6           0       -1.004734   -0.549494    0.038879
      7          6           0       -2.072259   -0.471928   -0.863862
      8          6           0       -3.109100   -1.407910   -0.779653
      9          6           0       -3.065084   -2.418333    0.186056
     10          6           0       -1.982448   -2.496264    1.070002
     11          6           0       -0.946615   -1.561202    1.003719
     12          6           0        1.444051    0.014822   -0.056527
     13          6           0        1.830552   -0.978230   -0.963483
     14          6           0        3.168758   -1.376510   -1.003088
     15          6           0        4.107812   -0.785095   -0.150235
     16          6           0        3.708105    0.203537    0.754186
     17          6           0        2.369620    0.604384    0.810702
     18          1           0       -3.220616    2.288308    0.222379
     19          1           0       -2.828150    3.992470    0.090787
     20          1           0        0.843701    3.824287   -0.230168
     21          1           0       -2.078219    0.295297   -1.651216
     22          1           0       -3.945206   -1.358704   -1.489720
     23          1           0       -3.874893   -3.157207    0.244083
     24          1           0       -1.944487   -3.292252    1.825150
     25          1           0       -0.096521   -1.614263    1.696246
     26          1           0        1.089668   -1.435062   -1.632456
     27          1           0        3.480987   -2.153931   -1.712530
     28          1           0        5.158333   -1.101465   -0.187746
     29          1           0        4.440228    0.660409    1.432750
     30          1           0        2.047740    1.361038    1.539049
 ---------------------------------------------------------------------
 Rotational constants (GHZ):           0.6390557           0.3873983           0.2673943
 Leave Link  202 at Wed May 11 05:27:02 2022, MaxMem=  6442450944 cpu:               0.1 elap:               0.0
 (Enter /home1/apps/gaussian/16rA.03/g16/l301.exe)
 Standard basis: def2SVP (5D, 7F)
 Ernie: Thresh=  0.10000D-02 Tol=  0.10000D-05 Strict=F.
 There are   320 symmetry adapted cartesian basis functions of A   symmetry.
 There are   303 symmetry adapted basis functions of A   symmetry.
   303 basis functions,   516 primitive gaussians,   320 cartesian basis functions
    58 alpha electrons       58 beta electrons
       nuclear repulsion energy      1081.9857107321 Hartrees.
 IExCor=33909 DFT=T Ex+Corr=LC-wHPBE ExCW=0 ScaHFX=  1.000000
 ScaDFX=  1.000000  1.000000  1.000000  1.000000 ScalE2=  1.000000  1.000000
 IRadAn=      5 IRanWt=     -1 IRanGd=            0 ICorTp=0 IEmpDi=  4
 HFx  wShort=  0.000000 wLong=  0.225700 cFull=  0.000000 cShort=  0.000000 cLong=  1.000000
 DFx  wShort=  0.000000 wLong=  0.225700 cFull=  0.000000 cShort=  1.000000 cLong=  0.000000
 NAtoms=   30 NActive=   30 NUniq=   30 SFac= 1.00D+00 NAtFMM=   60 NAOKFM=F Big=F
 Integral buffers will be    131072 words long.
 Raffenetti 1 integral format.
 Two-electron integral symmetry is turned on.
 Leave Link  301 at Wed May 11 05:27:02 2022, MaxMem=  6442450944 cpu:               1.0 elap:               0.1
 (Enter /home1/apps/gaussian/16rA.03/g16/l302.exe)
 NPDir=0 NMtPBC=     1 NCelOv=     1 NCel=       1 NClECP=     1 NCelD=      1
         NCelK=      1 NCelE2=     1 NClLst=     1 CellRange=     0.0.
 One-electron integrals computed using PRISM.
 One-electron integral symmetry used in STVInt
   1 Symmetry operations used in ECPInt.
 ECPInt:  NShTT=   10011 NPrTT=   36575 LenC2=    9405 LenP2D=   24548.
 LDataN:  DoStor=T MaxTD1= 4 Len=   56
 NBasis=   303 RedAO= T EigKep=  2.62D-04  NBF=   303
 NBsUse=   303 1.00D-06 EigRej= -1.00D+00 NBFU=   303
 Precomputing XC quadrature grid using
 IXCGrd= 4 IRadAn=           5 IRanWt=          -1 IRanGd=           0 AccXCQ= 0.00D+00.
 Generated NRdTot=       0 NPtTot=           0 NUsed=           0 NTot=          32
 NSgBfM=   319   319   319   319   319 MxSgAt=    30 MxSgA2=    30.
 Leave Link  302 at Wed May 11 05:27:02 2022, MaxMem=  6442450944 cpu:               5.5 elap:               0.4
 (Enter /home1/apps/gaussian/16rA.03/g16/l303.exe)
 DipDrv:  MaxL=1.
 Leave Link  303 at Wed May 11 05:27:02 2022, MaxMem=  6442450944 cpu:               0.7 elap:               0.1
 (Enter /home1/apps/gaussian/16rA.03/g16/l308.exe)
 Leave Link  308 at Wed May 11 05:27:03 2022, MaxMem=  6442450944 cpu:               0.9 elap:               0.1
 (Enter /home1/apps/gaussian/16rA.03/g16/l401.exe)
 ExpMin= 1.22D-01 ExpMax= 1.71D+03 ExpMxC= 2.58D+02 IAcc=3 IRadAn=         5 AccDes= 0.00D+00
 Harris functional with IExCor=33909 and IRadAn=       5 diagonalized for initial guess.
 HarFok:  IExCor=33909 AccDes= 0.00D+00 IRadAn=         5 IDoV= 1 UseB2=F ITyADJ=14
 ICtDFT=  3500011 ScaDFX=  1.000000  1.000000  1.000000  1.000000
 FoFCou: FMM=F IPFlag=           0 FMFlag=      100000 FMFlg1=           0
         NFxFlg=           0 DoJE=T BraDBF=F KetDBF=T FulRan=T
         wScrn=  0.000000 ICntrl=       500 IOpCl=  0 I1Cent=   200000004 NGrid=           0
         NMat0=    1 NMatS0=      1 NMatT0=    0 NMatD0=    1 NMtDS0=    0 NMtDT0=    0
 Petite list used in FoFCou.
 Harris En= -673.698110206546    
 JPrj=0 DoOrth=F DoCkMO=F.
 Leave Link  401 at Wed May 11 05:27:04 2022, MaxMem=  6442450944 cpu:              18.3 elap:               1.2
 (Enter /home1/apps/gaussian/16rA.03/g16/l502.exe)
 Integral symmetry usage will be decided dynamically.
 Closed shell SCF:
 Using DIIS extrapolation, IDIIS=  1040.
 NGot=  6442450944 LenX=  6442237618 LenY=  6442134777
 Requested convergence on RMS density matrix=1.00D-08 within 128 cycles.
 Requested convergence on MAX density matrix=1.00D-06.
 Requested convergence on             energy=1.00D-06.
 No special actions if energy rises.
 Fock matrices will be formed incrementally for  20 cycles.
 Integral accuracy reduced to 1.0D-05 until final iterations.

 Cycle   1  Pass 0  IDiag  1:
 FoFJK:  IHMeth= 1 ICntrl=       0 DoSepK=T KAlg= 0 I1Cent=           0 FoldK=F
 IRaf=         1 NMat=       1 IRICut=       1 DoRegI=T DoRafI=F ISym2E= 0 IDoP0=0 IntGTp=1.
 FoFCou: FMM=F IPFlag=           0 FMFlag=      100000 FMFlg1=           0
         NFxFlg=           0 DoJE=T BraDBF=F KetDBF=F FulRan=T
         wScrn=  0.000000 ICntrl=       500 IOpCl=  0 I1Cent=           0 NGrid=           0
         NMat0=    1 NMatS0=      1 NMatT0=    0 NMatD0=    1 NMtDS0=    0 NMtDT0=    0
 Symmetry not used in FoFCou.
 E= -687.336316212917    
 DIIS: error= 2.19D-02 at cycle   1 NSaved=   1.
 NSaved= 1 IEnMin= 1 EnMin= -687.336316212917     IErMin= 1 ErrMin= 2.19D-02
 ErrMax= 2.19D-02  0.00D+00 EMaxC= 1.00D-01 BMatC= 1.87D-01 BMatP= 1.87D-01
 IDIUse=3 WtCom= 7.81D-01 WtEn= 2.19D-01
 Coeff-Com:  0.100D+01
 Coeff-En:   0.100D+01
 Coeff:      0.100D+01
 Gap=     0.435 Goal=   None    Shift=    0.000
 GapD=    0.435 DampG=2.000 DampE=0.500 DampFc=1.0000 IDamp=-1.
 RMSDP=3.93D-03 MaxDP=7.38D-02              OVMax= 1.47D-01

 Cycle   2  Pass 0  IDiag  1:
 RMSU=  3.74D-03    CP:  9.41D-01
 E= -687.333867909830     Delta-E=        0.002448303087 Rises=F Damp=F
 DIIS: error= 3.04D-02 at cycle   2 NSaved=   2.
 NSaved= 2 IEnMin= 1 EnMin= -687.336316212917     IErMin= 1 ErrMin= 2.19D-02
 ErrMax= 3.04D-02  0.00D+00 EMaxC= 1.00D-01 BMatC= 2.22D-01 BMatP= 1.87D-01
 IDIUse=2 WtCom= 0.00D+00 WtEn= 1.00D+00
 Coeff-En:   0.503D+00 0.497D+00
 Coeff:      0.503D+00 0.497D+00
 Gap=     0.342 Goal=   None    Shift=    0.000
 RMSDP=1.99D-03 MaxDP=6.59D-02 DE= 2.45D-03 OVMax= 1.11D-01

 Cycle   3  Pass 0  IDiag  1:
 RMSU=  1.13D-03    CP:  9.52D-01  5.64D-01
 E= -687.535494478806     Delta-E=       -0.201626568976 Rises=F Damp=F
 DIIS: error= 8.80D-03 at cycle   3 NSaved=   3.
 NSaved= 3 IEnMin= 3 EnMin= -687.535494478806     IErMin= 3 ErrMin= 8.80D-03
 ErrMax= 8.80D-03  0.00D+00 EMaxC= 1.00D-01 BMatC= 1.32D-02 BMatP= 1.87D-01
 IDIUse=3 WtCom= 9.12D-01 WtEn= 8.80D-02
 Coeff-Com:  0.199D+00 0.251D+00 0.550D+00
 Coeff-En:   0.000D+00 0.000D+00 0.100D+01
 Coeff:      0.182D+00 0.229D+00 0.589D+00
 Gap=     0.325 Goal=   None    Shift=    0.000
 RMSDP=5.31D-04 MaxDP=2.89D-02 DE=-2.02D-01 OVMax= 3.84D-02

 Cycle   4  Pass 0  IDiag  1:
 RMSU=  3.53D-04    CP:  9.53D-01  6.20D-01  7.00D-01
 E= -687.547373519486     Delta-E=       -0.011879040680 Rises=F Damp=F
 DIIS: error= 2.71D-03 at cycle   4 NSaved=   4.
 NSaved= 4 IEnMin= 4 EnMin= -687.547373519486     IErMin= 4 ErrMin= 2.71D-03
 ErrMax= 2.71D-03  0.00D+00 EMaxC= 1.00D-01 BMatC= 1.51D-03 BMatP= 1.32D-02
 IDIUse=3 WtCom= 9.73D-01 WtEn= 2.71D-02
 Coeff-Com:  0.230D-01 0.315D-01 0.274D+00 0.672D+00
 Coeff-En:   0.000D+00 0.000D+00 0.613D-01 0.939D+00
 Coeff:      0.224D-01 0.307D-01 0.268D+00 0.679D+00
 Gap=     0.315 Goal=   None    Shift=    0.000
 RMSDP=1.67D-04 MaxDP=8.01D-03 DE=-1.19D-02 OVMax= 1.04D-02

 Cycle   5  Pass 0  IDiag  1:
 RMSU=  8.80D-05    CP:  9.52D-01  6.12D-01  8.03D-01  7.93D-01
 E= -687.548819855158     Delta-E=       -0.001446335672 Rises=F Damp=F
 DIIS: error= 4.79D-04 at cycle   5 NSaved=   5.
 NSaved= 5 IEnMin= 5 EnMin= -687.548819855158     IErMin= 5 ErrMin= 4.79D-04
 ErrMax= 4.79D-04  0.00D+00 EMaxC= 1.00D-01 BMatC= 6.21D-05 BMatP= 1.51D-03
 IDIUse=3 WtCom= 9.95D-01 WtEn= 4.79D-03
 Coeff-Com: -0.388D-02-0.572D-02 0.732D-01 0.283D+00 0.653D+00
 Coeff-En:   0.000D+00 0.000D+00 0.000D+00 0.000D+00 0.100D+01
 Coeff:     -0.386D-02-0.569D-02 0.729D-01 0.282D+00 0.655D+00
 Gap=     0.317 Goal=   None    Shift=    0.000
 RMSDP=3.82D-05 MaxDP=1.58D-03 DE=-1.45D-03 OVMax= 2.27D-03

 Cycle   6  Pass 0  IDiag  1:
 RMSU=  3.23D-05    CP:  9.51D-01  6.10D-01  8.12D-01  8.34D-01  9.46D-01
 E= -687.548884245816     Delta-E=       -0.000064390658 Rises=F Damp=F
 DIIS: error= 1.45D-04 at cycle   6 NSaved=   6.
 NSaved= 6 IEnMin= 6 EnMin= -687.548884245816     IErMin= 6 ErrMin= 1.45D-04
 ErrMax= 1.45D-04  0.00D+00 EMaxC= 1.00D-01 BMatC= 7.21D-06 BMatP= 6.21D-05
 IDIUse=3 WtCom= 9.99D-01 WtEn= 1.45D-03
 Coeff-Com: -0.442D-02-0.678D-02-0.232D-02 0.354D-01 0.266D+00 0.712D+00
 Coeff-En:   0.000D+00 0.000D+00 0.000D+00 0.000D+00 0.000D+00 0.100D+01
 Coeff:     -0.442D-02-0.677D-02-0.232D-02 0.353D-01 0.266D+00 0.712D+00
 Gap=     0.318 Goal=   None    Shift=    0.000
 RMSDP=1.42D-05 MaxDP=5.13D-04 DE=-6.44D-05 OVMax= 1.51D-03

 Cycle   7  Pass 0  IDiag  1:
 RMSU=  1.11D-05    CP:  9.51D-01  6.09D-01  8.16D-01  8.45D-01  1.02D+00
                    CP:  1.02D+00
 E= -687.548894053922     Delta-E=       -0.000009808106 Rises=F Damp=F
 DIIS: error= 5.68D-05 at cycle   7 NSaved=   7.
 NSaved= 7 IEnMin= 7 EnMin= -687.548894053922     IErMin= 7 ErrMin= 5.68D-05
 ErrMax= 5.68D-05  0.00D+00 EMaxC= 1.00D-01 BMatC= 6.43D-07 BMatP= 7.21D-06
 IDIUse=1 WtCom= 1.00D+00 WtEn= 0.00D+00
 Coeff-Com: -0.632D-03-0.132D-02-0.972D-02-0.263D-01-0.200D-01 0.185D+00
 Coeff-Com:  0.873D+00
 Coeff:     -0.632D-03-0.132D-02-0.972D-02-0.263D-01-0.200D-01 0.185D+00
 Coeff:      0.873D+00
 Gap=     0.318 Goal=   None    Shift=    0.000
 RMSDP=7.54D-06 MaxDP=2.32D-04 DE=-9.81D-06 OVMax= 8.81D-04

 Initial convergence to 1.0D-05 achieved.  Increase integral accuracy.
 Cycle   8  Pass 1  IDiag  1:
 E= -687.548901247934     Delta-E=       -0.000007194012 Rises=F Damp=F
 DIIS: error= 1.21D-04 at cycle   1 NSaved=   1.
 NSaved= 1 IEnMin= 1 EnMin= -687.548901247934     IErMin= 1 ErrMin= 1.21D-04
 ErrMax= 1.21D-04  0.00D+00 EMaxC= 1.00D-01 BMatC= 1.77D-06 BMatP= 1.77D-06
 IDIUse=3 WtCom= 9.99D-01 WtEn= 1.21D-03
 Coeff-Com:  0.100D+01
 Coeff-En:   0.100D+01
 Coeff:      0.100D+01
 Gap=     0.318 Goal=   None    Shift=    0.000
 RMSDP=7.54D-06 MaxDP=2.32D-04 DE=-7.19D-06 OVMax= 2.48D-04

 Cycle   9  Pass 1  IDiag  1:
 RMSU=  8.80D-05    CP:  1.00D+00
 E= -687.548902810916     Delta-E=       -0.000001562982 Rises=F Damp=F
 DIIS: error= 1.89D-05 at cycle   2 NSaved=   2.
 NSaved= 2 IEnMin= 2 EnMin= -687.548902810916     IErMin= 2 ErrMin= 1.89D-05
 ErrMax= 1.89D-05  0.00D+00 EMaxC= 1.00D-01 BMatC= 1.45D-07 BMatP= 1.77D-06
 IDIUse=1 WtCom= 1.00D+00 WtEn= 0.00D+00
 Coeff-Com:  0.953D-01 0.905D+00
 Coeff:      0.953D-01 0.905D+00
 Gap=     0.318 Goal=   None    Shift=    0.000
 RMSDP=5.83D-06 MaxDP=1.38D-04 DE=-1.56D-06 OVMax= 1.67D-04

 Cycle  10  Pass 1  IDiag  1:
 RMSU=  2.89D-06    CP:  1.00D+00  1.06D+00
 E= -687.548902840502     Delta-E=       -0.000000029586 Rises=F Damp=F
 DIIS: error= 2.00D-05 at cycle   3 NSaved=   3.
 NSaved= 3 IEnMin= 3 EnMin= -687.548902840502     IErMin= 2 ErrMin= 1.89D-05
 ErrMax= 2.00D-05  0.00D+00 EMaxC= 1.00D-01 BMatC= 1.44D-07 BMatP= 1.45D-07
 IDIUse=1 WtCom= 1.00D+00 WtEn= 0.00D+00
 Coeff-Com: -0.252D-01 0.504D+00 0.521D+00
 Coeff:     -0.252D-01 0.504D+00 0.521D+00
 Gap=     0.318 Goal=   None    Shift=    0.000
 RMSDP=1.52D-06 MaxDP=7.10D-05 DE=-2.96D-08 OVMax= 9.02D-05

 Cycle  11  Pass 1  IDiag  1:
 RMSU=  9.44D-07    CP:  1.00D+00  1.07D+00  7.37D-01
 E= -687.548902976471     Delta-E=       -0.000000135969 Rises=F Damp=F
 DIIS: error= 2.39D-06 at cycle   4 NSaved=   4.
 NSaved= 4 IEnMin= 4 EnMin= -687.548902976471     IErMin= 4 ErrMin= 2.39D-06
 ErrMax= 2.39D-06  0.00D+00 EMaxC= 1.00D-01 BMatC= 2.05D-09 BMatP= 1.44D-07
 IDIUse=1 WtCom= 1.00D+00 WtEn= 0.00D+00
 Coeff-Com: -0.125D-01 0.180D+00 0.200D+00 0.632D+00
 Coeff:     -0.125D-01 0.180D+00 0.200D+00 0.632D+00
 Gap=     0.318 Goal=   None    Shift=    0.000
 RMSDP=2.83D-07 MaxDP=1.13D-05 DE=-1.36D-07 OVMax= 1.69D-05

 Cycle  12  Pass 1  IDiag  1:
 RMSU=  2.31D-07    CP:  1.00D+00  1.07D+00  7.73D-01  1.08D+00
 E= -687.548902979441     Delta-E=       -0.000000002970 Rises=F Damp=F
 DIIS: error= 1.51D-06 at cycle   5 NSaved=   5.
 NSaved= 5 IEnMin= 5 EnMin= -687.548902979441     IErMin= 5 ErrMin= 1.51D-06
 ErrMax= 1.51D-06  0.00D+00 EMaxC= 1.00D-01 BMatC= 2.91D-10 BMatP= 2.05D-09
 IDIUse=1 WtCom= 1.00D+00 WtEn= 0.00D+00
 Coeff-Com:  0.359D-02-0.920D-01-0.100D+00 0.132D+00 0.106D+01
 Coeff:      0.359D-02-0.920D-01-0.100D+00 0.132D+00 0.106D+01
 Gap=     0.318 Goal=   None    Shift=    0.000
 RMSDP=2.48D-07 MaxDP=6.18D-06 DE=-2.97D-09 OVMax= 2.89D-05

 Cycle  13  Pass 1  IDiag  1:
 RMSU=  1.40D-07    CP:  1.00D+00  1.07D+00  8.02D-01  1.24D+00  1.38D+00
 E= -687.548902980564     Delta-E=       -0.000000001123 Rises=F Damp=F
 DIIS: error= 6.83D-07 at cycle   6 NSaved=   6.
 NSaved= 6 IEnMin= 6 EnMin= -687.548902980564     IErMin= 6 ErrMin= 6.83D-07
 ErrMax= 6.83D-07  0.00D+00 EMaxC= 1.00D-01 BMatC= 9.89D-11 BMatP= 2.91D-10
 IDIUse=1 WtCom= 1.00D+00 WtEn= 0.00D+00
 Coeff-Com:  0.305D-02-0.624D-01-0.704D-01-0.218D-01 0.527D+00 0.625D+00
 Coeff:      0.305D-02-0.624D-01-0.704D-01-0.218D-01 0.527D+00 0.625D+00
 Gap=     0.318 Goal=   None    Shift=    0.000
 RMSDP=6.21D-08 MaxDP=2.01D-06 DE=-1.12D-09 OVMax= 7.56D-06

 Cycle  14  Pass 1  IDiag  1:
 RMSU=  4.36D-08    CP:  1.00D+00  1.07D+00  8.06D-01  1.27D+00  1.51D+00
                    CP:  1.10D+00
 E= -687.548902980689     Delta-E=       -0.000000000125 Rises=F Damp=F
 DIIS: error= 2.11D-07 at cycle   7 NSaved=   7.
 NSaved= 7 IEnMin= 7 EnMin= -687.548902980689     IErMin= 7 ErrMin= 2.11D-07
 ErrMax= 2.11D-07  0.00D+00 EMaxC= 1.00D-01 BMatC= 9.34D-12 BMatP= 9.89D-11
 IDIUse=1 WtCom= 1.00D+00 WtEn= 0.00D+00
 Coeff-Com:  0.788D-03-0.134D-01-0.161D-01-0.374D-01 0.742D-01 0.253D+00
 Coeff-Com:  0.739D+00
 Coeff:      0.788D-03-0.134D-01-0.161D-01-0.374D-01 0.742D-01 0.253D+00
 Coeff:      0.739D+00
 Gap=     0.318 Goal=   None    Shift=    0.000
 RMSDP=2.71D-08 MaxDP=7.50D-07 DE=-1.25D-10 OVMax= 2.15D-06

 Cycle  15  Pass 1  IDiag  1:
 RMSU=  1.29D-08    CP:  1.00D+00  1.07D+00  8.06D-01  1.27D+00  1.57D+00
                    CP:  1.21D+00  9.23D-01
 E= -687.548902980714     Delta-E=       -0.000000000025 Rises=F Damp=F
 DIIS: error= 8.17D-08 at cycle   8 NSaved=   8.
 NSaved= 8 IEnMin= 8 EnMin= -687.548902980714     IErMin= 8 ErrMin= 8.17D-08
 ErrMax= 8.17D-08  0.00D+00 EMaxC= 1.00D-01 BMatC= 2.17D-12 BMatP= 9.34D-12
 IDIUse=1 WtCom= 1.00D+00 WtEn= 0.00D+00
 Coeff-Com: -0.123D-03 0.401D-02 0.387D-02-0.175D-01-0.472D-01 0.247D-01
 Coeff-Com:  0.391D+00 0.641D+00
 Coeff:     -0.123D-03 0.401D-02 0.387D-02-0.175D-01-0.472D-01 0.247D-01
 Coeff:      0.391D+00 0.641D+00
 Gap=     0.318 Goal=   None    Shift=    0.000
 RMSDP=9.22D-09 MaxDP=2.19D-07 DE=-2.48D-11 OVMax= 6.58D-07

 SCF Done:  E(RLC-wHPBE) =  -687.548902981     A.U. after   15 cycles
            NFock= 15  Conv=0.92D-08     -V/T= 2.0117
 KE= 6.795808192708D+02 PE=-3.739466327760D+03 EE= 1.290350894776D+03
 Leave Link  502 at Wed May 11 05:27:36 2022, MaxMem=  6442450944 cpu:             499.7 elap:              31.4
 (Enter /home1/apps/gaussian/16rA.03/g16/l801.exe)
 DoSCS=F DFT=T ScalE2(SS,OS)=  1.000000  1.000000
 ExpMin= 1.22D-01 ExpMax= 1.71D+03 ExpMxC= 2.58D+02 IAcc=3 IRadAn=         5 AccDes= 0.00D+00
 HarFok:  IExCor=  205 AccDes= 0.00D+00 IRadAn=         5 IDoV=-2 UseB2=F ITyADJ=14
 ICtDFT= 12500011 ScaDFX=  1.000000  1.000000  1.000000  1.000000
 Largest valence mixing into a core orbital is  7.14D-05
 Largest core mixing into a valence orbital is  3.28D-05
 Range of M.O.s used for correlation:    18   303
 NBasis=   303 NAE=    58 NBE=    58 NFC=    17 NFV=     0
 NROrb=    286 NOA=    41 NOB=    41 NVA=   245 NVB=   245

 **** Warning!!: The largest alpha MO coefficient is  0.13272868D+02

 Leave Link  801 at Wed May 11 05:27:36 2022, MaxMem=  6442450944 cpu:               6.5 elap:               0.6
 (Enter /home1/apps/gaussian/16rA.03/g16/l914.exe)
 RHF ground state
 Two-electron integrals replicated using symmetry.
 MDV=  6442450944 DFT=T DoStab=F Mixed=T DoRPA=T DoScal=F NonHer=T
 Making orbital integer symmetry assigments:
 Orbital symmetries:
       Occupied  (A) (A) (A) (A) (A) (A) (A) (A) (A) (A) (A) (A)
                 (A) (A) (A) (A) (A) (A) (A) (A) (A) (A) (A) (A)
                 (A) (A) (A) (A) (A) (A) (A) (A) (A) (A) (A) (A)
                 (A) (A) (A) (A) (A) (A) (A) (A) (A) (A) (A) (A)
                 (A) (A) (A) (A) (A) (A) (A) (A) (A) (A)
       Virtual   (A) (A) (A) (A) (A) (A) (A) (A) (A) (A) (A) (A)
                 (A) (A) (A) (A) (A) (A) (A) (A) (A) (A) (A) (A)
                 (A) (A) (A) (A) (A) (A) (A) (A) (A) (A) (A) (A)
                 (A) (A) (A) (A) (A) (A) (A) (A) (A) (A) (A) (A)
                 (A) (A) (A) (A) (A) (A) (A) (A) (A) (A) (A) (A)
                 (A) (A) (A) (A) (A) (A) (A) (A) (A) (A) (A) (A)
                 (A) (A) (A) (A) (A) (A) (A) (A) (A) (A) (A) (A)
                 (A) (A) (A) (A) (A) (A) (A) (A) (A) (A) (A) (A)
                 (A) (A) (A) (A) (A) (A) (A) (A) (A) (A) (A) (A)
                 (A) (A) (A) (A) (A) (A) (A) (A) (A) (A) (A) (A)
                 (A) (A) (A) (A) (A) (A) (A) (A) (A) (A) (A) (A)
                 (A) (A) (A) (A) (A) (A) (A) (A) (A) (A) (A) (A)
                 (A) (A) (A) (A) (A) (A) (A) (A) (A) (A) (A) (A)
                 (A) (A) (A) (A) (A) (A) (A) (A) (A) (A) (A) (A)
                 (A) (A) (A) (A) (A) (A) (A) (A) (A) (A) (A) (A)
                 (A) (A) (A) (A) (A) (A) (A) (A) (A) (A) (A) (A)
                 (A) (A) (A) (A) (A) (A) (A) (A) (A) (A) (A) (A)
                 (A) (A) (A) (A) (A) (A) (A) (A) (A) (A) (A) (A)
                 (A) (A) (A) (A) (A) (A) (A) (A) (A) (A) (A) (A)
                 (A) (A) (A) (A) (A) (A) (A) (A) (A) (A) (A) (A)
                 (A) (A) (A) (A) (A)
   120 initial guesses have been made.
 Convergence on wavefunction:    0.001000000000000
 Davidson Disk Diagonalization:  ConvIn= 1.00D-03 SkipCon=T Conv= 1.00D-03.
 Max sub-space:  2000 roots to seek:   120 dimension of matrix:        20090
 Iteration     1 Dimension   120 NMult     0 NNew    120
 CISAX will form   120 AO SS matrices at one time.
 NMat=   120 NSing=    60 JSym2X= 0.
 FoFJK:  IHMeth= 1 ICntrl=       0 DoSepK=T KAlg= 0 I1Cent=           0 FoldK=F
 IRaf=         1 NMat=     240 IRICut=       1 DoRegI=T DoRafI=F ISym2E= 0 IDoP0=3 IntGTp=3.
 FoFCou: FMM=F IPFlag=           0 FMFlag=      100000 FMFlg1=           0
         NFxFlg=           0 DoJE=F BraDBF=F KetDBF=F FulRan=T
         wScrn=  0.000000 ICntrl=       500 IOpCl=  0 I1Cent=           0 NGrid=           0
         NMat0=   60 NMatS0=     60 NMatT0=    0 NMatD0=   60 NMtDS0=    0 NMtDT0=    0
 Symmetry not used in FoFCou.
 New state      1 was old state      2
 New state      2 was old state      6
 New state      3 was old state     34
 New state      4 was old state     24
 New state      5 was old state     20
 New state      6 was old state     22
 New state      7 was old state     40
 New state      8 was old state     18
 New state      9 was old state     30
 New state     10 was old state      7
 New state     11 was old state     17
 New state     12 was old state     38
 New state     13 was old state      1
 New state     14 was old state      5
 New state     15 was old state      3
 New state     16 was old state      4
 New state     17 was old state     14
 New state     18 was old state     13
 New state     19 was old state     88
 New state     20 was old state      9
 New state     21 was old state     10
 New state     22 was old state     11
 New state     23 was old state     26
 New state     24 was old state     15
 New state     25 was old state      8
 New state     26 was old state     16
 New state     27 was old state     19
 New state     28 was old state     36
 New state     29 was old state     37
 New state     30 was old state     50
 New state     31 was old state     21
 New state     32 was old state     27
 New state     33 was old state     28
 New state     34 was old state     35
 New state     35 was old state     23
 New state     36 was old state     54
 New state     37 was old state     32
 New state     38 was old state     31
 New state     39 was old state     60
 New state     40 was old state     49
 New state     41 was old state     58
 New state     42 was old state     57
 New state     43 was old state     44
 New state     44 was old state     47
 New state     45 was old state     46
 New state     46 was old state     48
 New state     47 was old state     33
 New state     48 was old state     43
 New state     49 was old state     96
 New state     50 was old state     62
 New state     51 was old state     41
 New state     52 was old state     42
 New state     53 was old state     79
 New state     54 was old state     68
 New state     55 was old state    111
 New state     56 was old state    104
 New state     57 was old state     45
 New state     58 was old state     53
 New state     59 was old state     52
 New state     60 was old state     67
 Excitation Energies [eV] at current iteration:
 Root      1 :     3.947687949212539
 Root      2 :     4.100152283313936
 Root      3 :     4.436905492038755
 Root      4 :     4.612795081288665
 Root      5 :     4.644331701252233
 Root      6 :     4.669394914520587
 Root      7 :     4.754035294573697
 Root      8 :     4.904737953019295
 Root      9 :     4.964143003851525
 Root     10 :     5.257731309695632
 Root     11 :     5.350811315817932
 Root     12 :     5.380246622837475
 Root     13 :     5.514742893633046
 Root     14 :     6.027551665232829
 Root     15 :     6.100972603332064
 Root     16 :     6.119496818901007
 Root     17 :     6.156240515838066
 Root     18 :     6.243598480882310
 Root     19 :     6.299565250566635
 Root     20 :     6.317396837741497
 Root     21 :     6.362539346230762
 Root     22 :     6.396772785881264
 Root     23 :     6.793457570727127
 Root     24 :     6.800660250706034
 Root     25 :     6.856859356272508
 Root     26 :     6.938597297761628
 Root     27 :     6.945047441397604
 Root     28 :     7.061914363075755
 Root     29 :     7.066199465468412
 Root     30 :     7.096081950607623
 Root     31 :     7.107337912920822
 Root     32 :     7.131925114357310
 Root     33 :     7.144556827040751
 Root     34 :     7.217920873576039
 Root     35 :     7.235667896984240
 Root     36 :     7.240395216327375
 Root     37 :     7.356253814247516
 Root     38 :     7.403770470258613
 Root     39 :     7.411967873822549
 Root     40 :     7.508861156249096
 Root     41 :     7.514122432104513
 Root     42 :     7.576029933204699
 Root     43 :     7.632559878328295
 Root     44 :     7.645724681754488
 Root     45 :     7.671896905909589
 Root     46 :     7.695612352506064
 Root     47 :     7.702166751145028
 Root     48 :     7.739300661382993
 Root     49 :     7.763623225519858
 Root     50 :     7.801964215300677
 Root     51 :     7.802100237286043
 Root     52 :     7.816925467761977
 Root     53 :     7.818131032275090
 Root     54 :     7.830743197636255
 Root     55 :     7.883046662922902
 Root     56 :     7.904315390438954
 Root     57 :     7.932885132775362
 Root     58 :     7.947233254907115
 Root     59 :     7.955634916682597
 Root     60 :     8.026287938520307
 Root     61 :     8.121686899496055
 Root     62 :     8.157899088612604
 Root     63 :     8.180994603470964
 Root     64 :     8.310105052974569
 Root     65 :     8.317533604622849
 Root     66 :     8.338622856091456
 Root     67 :     8.371929731557772
 Root     68 :     8.386336904387276
 Root     69 :     8.428700878456217
 Root     70 :     8.446154197912689
 Root     71 :     8.491593418790170
 Root     72 :     8.511500263331559
 Root     73 :     8.516026766528089
 Root     74 :     8.614458473917365
 Root     75 :     8.624282290106759
 Root     76 :     8.631792618472089
 Root     77 :     8.632141534929520
 Root     78 :     8.697678367586766
 Root     79 :     8.720317754091830
 Root     80 :     8.754223527583918
 Root     81 :     8.802700485388284
 Root     82 :     8.820577058763972
 Root     83 :     8.899346786454156
 Root     84 :     8.938223795774206
 Root     85 :     8.968211363821084
 Root     86 :     8.973449925784077
 Root     87 :     8.989598918557089
 Root     88 :     9.039903025609659
 Root     89 :     9.072035242428907
 Root     90 :     9.084874770381752
 Root     91 :     9.130904461284096
 Root     92 :     9.135675572731524
 Root     93 :     9.165305049494028
 Root     94 :     9.173607469825965
 Root     95 :     9.175350584284384
 Root     96 :     9.196040844426925
 Root     97 :     9.208824908512309
 Root     98 :     9.218269584486295
 Root     99 :     9.236894045815117
 Root    100 :     9.261972484137267
 Root    101 :     9.284170337686708
 Root    102 :     9.341279296599025
 Root    103 :     9.341812114798108
 Root    104 :     9.358841963844814
 Root    105 :     9.366352703257833
 Root    106 :     9.409485123896797
 Root    107 :     9.421130250877935
 Root    108 :     9.464087115087196
 Root    109 :     9.468323276992162
 Root    110 :     9.505476982047428
 Root    111 :     9.582988525345741
 Root    112 :     9.648616354965021
 Root    113 :     9.658417215819242
 Root    114 :     9.668373610446366
 Root    115 :     9.767205755634238
 Root    116 :     9.790240341461928
 Root    117 :     9.796272118666819
 Root    118 :     9.849090070020914
 Root    119 :     9.914673908831704
 Root    120 :    10.015144764768094
 Vector  25 SDiff=1.28D-01 TDiff=2.68D+00 assumed to be singlet.
 Vector  26 SDiff=2.58D+00 TDiff=1.26D-01 assumed to be triplet.
 Vector  28 SDiff=7.73D-01 TDiff=1.53D+00 assumed to be singlet.
 Vector  30 SDiff=3.64D-01 TDiff=2.20D+00 assumed to be singlet.
 Vector  55 SDiff=1.32D-01 TDiff=2.61D+00 assumed to be singlet.
 Vector  56 SDiff=2.57D+00 TDiff=9.77D-02 assumed to be triplet.
 Vector  58 SDiff=7.61D-01 TDiff=1.34D+00 assumed to be singlet.
 Vector  60 SDiff=3.69D-01 TDiff=2.03D+00 assumed to be singlet.
 Iteration     2 Dimension   180 NMult   120 NNew     60
 CISAX will form    60 AO SS matrices at one time.
 NMat=    60 NSing=    28 JSym2X= 0.
 Root      1 not converged, maximum delta is    0.118259576454064
 Root      2 not converged, maximum delta is    0.060771041337262
 Root      3 not converged, maximum delta is    0.125260918554672
 Root      4 not converged, maximum delta is    0.048750410832036
 Root      5 not converged, maximum delta is    0.079699682580169
 Root      6 not converged, maximum delta is    0.049934566620907
 Root      7 not converged, maximum delta is    0.075027182527462
 Root      8 not converged, maximum delta is    0.022190155174307
 Root      9 not converged, maximum delta is    0.021522427934312
 Root     10 not converged, maximum delta is    0.349282289456231
 New state     11 was old state     13
 Root     11 not converged, maximum delta is    0.157609818526362
 Root     12 not converged, maximum delta is    0.048844568897137
 New state     13 was old state     11
 Root     13 not converged, maximum delta is    0.065028991101675
 Root     14 not converged, maximum delta is    0.144238080868348
 New state     15 was old state     20
 Root     15 not converged, maximum delta is    0.428382721889545
 New state     16 was old state     15
 Root     16 not converged, maximum delta is    0.105037343042316
 New state     17 was old state     16
 Root     17 not converged, maximum delta is    0.303972259159951
 New state     18 was old state     17
 Root     18 not converged, maximum delta is    0.484058048894628
 Root     19 not converged, maximum delta is    0.222573625935091
 New state     20 was old state     18
 Root     20 not converged, maximum delta is    0.143581303361553
 New state     21 was old state     22
 Root     21 not converged, maximum delta is    0.339138618265318
 New state     22 was old state     21
 Root     22 not converged, maximum delta is    0.044481167158504
 New state     23 was old state     34
 Root     23 not converged, maximum delta is    0.289651265373852
 Root     24 not converged, maximum delta is    0.136047997958142
 New state     25 was old state     23
 Root     25 not converged, maximum delta is    0.072774140924615
 New state     26 was old state     29
 Root     26 not converged, maximum delta is    0.221227468025126
 New state     27 was old state     35
 Root     27 not converged, maximum delta is    0.367728887006451
 New state     28 was old state     27
 Root     28 not converged, maximum delta is    0.295435159013627
 New state     29 was old state     32
 Root     29 not converged, maximum delta is    0.367649373868536
 New state     30 was old state     31
 Root     30 not converged, maximum delta is    0.397837343393517
 Excitation Energies [eV] at current iteration:
 Root      1 :     3.565643689870436   Change is   -0.382044259342103
 Root      2 :     3.638081384742309   Change is   -0.462070898571627
 Root      3 :     4.136368438413295   Change is   -0.300537053625460
 Root      4 :     4.545981371697240   Change is   -0.066813709591424
 Root      5 :     4.575311302459001   Change is   -0.069020398793233
 Root      6 :     4.597956339572393   Change is   -0.071438574948194
 Root      7 :     4.650985454734895   Change is   -0.103049839838801
 Root      8 :     4.852778488559487   Change is   -0.051959464459808
 Root      9 :     4.910778757772688   Change is   -0.053364246078837
 Root     10 :     5.153203515269546   Change is   -0.104527794426086
 Root     11 :     5.173764939535297   Change is   -0.340977954097749
 Root     12 :     5.241010550147061   Change is   -0.139236072690414
 Root     13 :     5.248958459297613   Change is   -0.101852856520319
 Root     14 :     5.673749716936542   Change is   -0.353801948296286
 Root     15 :     5.944053919240334   Change is   -0.373342918501163
 Root     16 :     6.038530634221064   Change is   -0.062441969111000
 Root     17 :     6.039918210629296   Change is   -0.079578608271710
 Root     18 :     6.095468147679179   Change is   -0.060772368158887
 Root     19 :     6.155166409975331   Change is   -0.144398840591304
 Root     20 :     6.161265874615539   Change is   -0.082332606266770
 Root     21 :     6.271902492428522   Change is   -0.124870293452742
 Root     22 :     6.326501500993136   Change is   -0.036037845237626
 Root     23 :     6.488732497904048   Change is   -0.729188375671991
 Root     24 :     6.566117655151823   Change is   -0.234542595554212
 Root     25 :     6.610786856060332   Change is   -0.182670714666795
 Root     26 :     6.705729631542752   Change is   -0.360469833925660
 Root     27 :     6.840395068512553   Change is   -0.395272828471687
 Root     28 :     6.851718448756611   Change is   -0.093328992640993
 Root     29 :     6.950490737428524   Change is   -0.181434376928786
 Root     30 :     7.096500746694438   Change is   -0.010837166226384
 Iteration     3 Dimension   240 NMult   180 NNew     60
 CISAX will form    60 AO SS matrices at one time.
 NMat=    60 NSing=    30 JSym2X= 0.
 Root      1 not converged, maximum delta is    0.002622471251341
 Root      2 not converged, maximum delta is    0.003133346580396
 Root      3 not converged, maximum delta is    0.005252782226999
 Root      4 not converged, maximum delta is    0.003449526347943
 Root      5 not converged, maximum delta is    0.003309792254790
 Root      6 not converged, maximum delta is    0.002086069775577
 Root      7 not converged, maximum delta is    0.004406983329371
 Root      8 not converged, maximum delta is    0.007513221614820
 Root      9 not converged, maximum delta is    0.008133206928759
 Root     10 not converged, maximum delta is    0.109014890412700
 Root     11 not converged, maximum delta is    0.112331096229401
 Root     12 not converged, maximum delta is    0.009703774863179
 Root     13 not converged, maximum delta is    0.005251815364026
 Root     14 not converged, maximum delta is    0.004389438469858
 Root     15 not converged, maximum delta is    0.009898039843060
 Root     16 not converged, maximum delta is    0.009715698267317
 Root     17 not converged, maximum delta is    0.010866183845408
 Root     18 not converged, maximum delta is    0.029520692006112
 Root     19 not converged, maximum delta is    0.023718179844934
 Root     20 not converged, maximum delta is    0.009242620395732
 Root     21 not converged, maximum delta is    0.018540617019761
 Root     22 not converged, maximum delta is    0.014495157199245
 Root     23 not converged, maximum delta is    0.039297300826125
 Root     24 not converged, maximum delta is    0.048422906014972
 Root     25 not converged, maximum delta is    0.028544347456825
 Root     26 not converged, maximum delta is    0.073993297747524
 Root     27 not converged, maximum delta is    0.197908739206931
 Root     28 not converged, maximum delta is    0.233641505591328
 Root     29 not converged, maximum delta is    0.085304578479820
 Root     30 not converged, maximum delta is    0.181506046707338
 Excitation Energies [eV] at current iteration:
 Root      1 :     3.558408770469712   Change is   -0.007234919400724
 Root      2 :     3.631566846969074   Change is   -0.006514537773235
 Root      3 :     4.128530523274051   Change is   -0.007837915139243
 Root      4 :     4.544078874687962   Change is   -0.001902497009278
 Root      5 :     4.573283088125978   Change is   -0.002028214333023
 Root      6 :     4.595997189059799   Change is   -0.001959150512595
 Root      7 :     4.647632343073823   Change is   -0.003353111661072
 Root      8 :     4.849282318350443   Change is   -0.003496170209044
 Root      9 :     4.906652066452360   Change is   -0.004126691320327
 Root     10 :     5.143357427933337   Change is   -0.009846087336209
 Root     11 :     5.163750330521016   Change is   -0.010014609014280
 Root     12 :     5.231468379869517   Change is   -0.009542170277545
 Root     13 :     5.242480377612611   Change is   -0.006478081685002
 Root     14 :     5.662806694694903   Change is   -0.010943022241639
 Root     15 :     5.928702243550762   Change is   -0.015351675689572
 Root     16 :     6.032060403253731   Change is   -0.006470230967332
 Root     17 :     6.032309879675158   Change is   -0.007608330954138
 Root     18 :     6.088957214824902   Change is   -0.006510932854277
 Root     19 :     6.144139331443326   Change is   -0.011027078532005
 Root     20 :     6.154737369476104   Change is   -0.006528505139435
 Root     21 :     6.259248153663638   Change is   -0.012654338764884
 Root     22 :     6.318503732594850   Change is   -0.007997768398286
 Root     23 :     6.453936703438983   Change is   -0.034795794465064
 Root     24 :     6.539308706209182   Change is   -0.026808948942640
 Root     25 :     6.584047110273870   Change is   -0.026739745786462
 Root     26 :     6.648559256275576   Change is   -0.057170375267176
 Root     27 :     6.795306401884616   Change is   -0.045088666627936
 Root     28 :     6.800027581150214   Change is   -0.051690867606396
 Root     29 :     6.933684266259878   Change is   -0.016806471168647
 Root     30 :     7.029941669343274   Change is   -0.066559077351163
 Iteration     4 Dimension   300 NMult   240 NNew     60
 CISAX will form    60 AO SS matrices at one time.
 NMat=    60 NSing=    30 JSym2X= 0.
 Root      1 has converged.
 Root      2 has converged.
 Root      3 not converged, maximum delta is    0.001019224307952
 Root      4 has converged.
 Root      5 has converged.
 Root      6 has converged.
 Root      7 has converged.
 Root      8 not converged, maximum delta is    0.001992449998079
 Root      9 not converged, maximum delta is    0.002281955068070
 Root     10 not converged, maximum delta is    0.003114999654299
 Root     11 not converged, maximum delta is    0.004194014251088
 Root     12 not converged, maximum delta is    0.001512599141160
 Root     13 has converged.
 Root     14 has converged.
 Root     15 has converged.
 New state     16 was old state     17
 Root     16 not converged, maximum delta is    0.005205685576383
 New state     17 was old state     16
 Root     17 has converged.
 Root     18 not converged, maximum delta is    0.005379574318681
 Root     19 not converged, maximum delta is    0.007184479926896
 Root     20 not converged, maximum delta is    0.002114687122396
 Root     21 not converged, maximum delta is    0.001811842021798
 Root     22 not converged, maximum delta is    0.009553499556819
 Root     23 not converged, maximum delta is    0.004397615692490
 Root     24 not converged, maximum delta is    0.004347541393214
 Root     25 not converged, maximum delta is    0.024704944732519
 Root     26 not converged, maximum delta is    0.012570367408799
 Root     27 not converged, maximum delta is    0.032662260300117
 Root     28 not converged, maximum delta is    0.039204517801022
 Root     29 not converged, maximum delta is    0.005372866425539
 Root     30 not converged, maximum delta is    0.048245131138523
 Excitation Energies [eV] at current iteration:
 Root      1 :     3.558164945442928   Change is   -0.000243825026784
 Root      2 :     3.631330162363177   Change is   -0.000236684605897
 Root      3 :     4.128319724649995   Change is   -0.000210798624057
 Root      4 :     4.543976406846643   Change is   -0.000102467841319
 Root      5 :     4.573177145085632   Change is   -0.000105943040345
 Root      6 :     4.595898330910922   Change is   -0.000098858148877
 Root      7 :     4.647499742200743   Change is   -0.000132600873080
 Root      8 :     4.848962471937128   Change is   -0.000319846413315
 Root      9 :     4.906262675954392   Change is   -0.000389390497969
 Root     10 :     5.142956638434092   Change is   -0.000400789499245
 Root     11 :     5.163409259971747   Change is   -0.000341070549269
 Root     12 :     5.231007233627181   Change is   -0.000461146242336
 Root     13 :     5.242262581623811   Change is   -0.000217795988801
 Root     14 :     5.662319680916056   Change is   -0.000487013778847
 Root     15 :     5.928002892000737   Change is   -0.000699351550025
 Root     16 :     6.031166347340311   Change is   -0.001143532334847
 Root     17 :     6.031771405226053   Change is   -0.000288998027679
 Root     18 :     6.088037988687599   Change is   -0.000919226137302
 Root     19 :     6.141683558193686   Change is   -0.002455773249640
 Root     20 :     6.154292942840094   Change is   -0.000444426636010
 Root     21 :     6.258555088418780   Change is   -0.000693065244858
 Root     22 :     6.315647648869806   Change is   -0.002856083725044
 Root     23 :     6.451638613347525   Change is   -0.002298090091459
 Root     24 :     6.537716126003429   Change is   -0.001592580205753
 Root     25 :     6.573710432509234   Change is   -0.010336677764636
 Root     26 :     6.643690381350058   Change is   -0.004868874925517
 Root     27 :     6.792060504268490   Change is   -0.003245897616126
 Root     28 :     6.795970184376362   Change is   -0.004057396773853
 Root     29 :     6.932641254147645   Change is   -0.001043012112232
 Root     30 :     7.016784613339021   Change is   -0.013157056004254
 Iteration     5 Dimension   340 NMult   300 NNew     40
 CISAX will form    40 AO SS matrices at one time.
 NMat=    40 NSing=    22 JSym2X= 0.
 Root      1 has converged.
 Root      2 has converged.
 Root      3 has converged.
 Root      4 has converged.
 Root      5 has converged.
 Root      6 has converged.
 Root      7 has converged.
 Root      8 has converged.
 Root      9 has converged.
 Root     10 has converged.
 Root     11 has converged.
 Root     12 has converged.
 Root     13 has converged.
 Root     14 has converged.
 Root     15 has converged.
 Root     16 not converged, maximum delta is    0.001478647975832
 Root     17 has converged.
 Root     18 not converged, maximum delta is    0.001237093932959
 Root     19 not converged, maximum delta is    0.001381439759699
 Root     20 has converged.
 Root     21 has converged.
 Root     22 not converged, maximum delta is    0.002325059396788
 Root     23 has converged.
 Root     24 has converged.
 Root     25 not converged, maximum delta is    0.012559420821403
 Root     26 not converged, maximum delta is    0.002240343975985
 Root     27 not converged, maximum delta is    0.002871998454880
 Root     28 not converged, maximum delta is    0.003404585704359
 Root     29 has converged.
 Root     30 not converged, maximum delta is    0.010593661088942
 Excitation Energies [eV] at current iteration:
 Root      1 :     3.558163875191099   Change is   -0.000001070251829
 Root      2 :     3.631329257309321   Change is   -0.000000905053856
 Root      3 :     4.128313044947430   Change is   -0.000006679702564
 Root      4 :     4.543975305078818   Change is   -0.000001101767825
 Root      5 :     4.573176019774994   Change is   -0.000001125310638
 Root      6 :     4.595897356650786   Change is   -0.000000974260135
 Root      7 :     4.647496681841031   Change is   -0.000003060359712
 Root      8 :     4.848949309002138   Change is   -0.000013162934990
 Root      9 :     4.906244811591168   Change is   -0.000017864363225
 Root     10 :     5.142940457921054   Change is   -0.000016180513038
 Root     11 :     5.163396009794988   Change is   -0.000013250176759
 Root     12 :     5.230979176256006   Change is   -0.000028057371174
 Root     13 :     5.242261109457060   Change is   -0.000001472166750
 Root     14 :     5.662312822192902   Change is   -0.000006858723153
 Root     15 :     5.927992674115787   Change is   -0.000010217884950
 Root     16 :     6.031020417534320   Change is   -0.000145929805991
 Root     17 :     6.031759844134053   Change is   -0.000011561092000
 Root     18 :     6.087936816549558   Change is   -0.000101172138041
 Root     19 :     6.141430574370489   Change is   -0.000252983823197
 Root     20 :     6.154259796144820   Change is   -0.000033146695274
 Root     21 :     6.258504450026705   Change is   -0.000050638392075
 Root     22 :     6.315274578571231   Change is   -0.000373070298576
 Root     23 :     6.451499230425053   Change is   -0.000139382922472
 Root     24 :     6.537598951349930   Change is   -0.000117174653500
 Root     25 :     6.570905489142075   Change is   -0.002804943367159
 Root     26 :     6.643327788377118   Change is   -0.000362592972941
 Root     27 :     6.791719971548023   Change is   -0.000340532720467
 Root     28 :     6.795552604771523   Change is   -0.000417579604838
 Root     29 :     6.932554342143857   Change is   -0.000086912003788
 Root     30 :     7.015024594444895   Change is   -0.001760018894125
 Iteration     6 Dimension   358 NMult   340 NNew     18
 CISAX will form    18 AO SS matrices at one time.
 NMat=    18 NSing=     8 JSym2X= 0.
 Root      1 has converged.
 Root      2 has converged.
 Root      3 has converged.
 Root      4 has converged.
 Root      5 has converged.
 Root      6 has converged.
 Root      7 has converged.
 Root      8 has converged.
 Root      9 has converged.
 Root     10 has converged.
 Root     11 has converged.
 Root     12 has converged.
 Root     13 has converged.
 Root     14 has converged.
 Root     15 has converged.
 Root     16 has converged.
 Root     17 has converged.
 Root     18 has converged.
 Root     19 has converged.
 Root     20 has converged.
 Root     21 has converged.
 Root     22 has converged.
 Root     23 has converged.
 Root     24 has converged.
 Root     25 not converged, maximum delta is    0.003963639495439
 Root     26 has converged.
 Root     27 has converged.
 Root     28 not converged, maximum delta is    0.001278186621268
 Root     29 has converged.
 Root     30 not converged, maximum delta is    0.001793873475906
 Excitation Energies [eV] at current iteration:
 Root      1 :     3.558163618296486   Change is   -0.000000256894613
 Root      2 :     3.631329068769382   Change is   -0.000000188539940
 Root      3 :     4.128312938258866   Change is   -0.000000106688564
 Root      4 :     4.543975234440776   Change is   -0.000000070638043
 Root      5 :     4.573175980251419   Change is   -0.000000039523576
 Root      6 :     4.595897207411010   Change is   -0.000000149239776
 Root      7 :     4.647496202631342   Change is   -0.000000479209689
 Root      8 :     4.848949042673374   Change is   -0.000000266328764
 Root      9 :     4.906244775854900   Change is   -0.000000035736267
 Root     10 :     5.142940312993326   Change is   -0.000000144927728
 Root     11 :     5.163395968654261   Change is   -0.000000041140727
 Root     12 :     5.230978567730571   Change is   -0.000000608525435
 Root     13 :     5.242260792889669   Change is   -0.000000316567392
 Root     14 :     5.662312163879986   Change is   -0.000000658312917
 Root     15 :     5.927991100342519   Change is   -0.000001573773269
 Root     16 :     6.031005771054083   Change is   -0.000014646480237
 Root     17 :     6.031758756916769   Change is   -0.000001087217284
 Root     18 :     6.087926408137046   Change is   -0.000010408412511
 Root     19 :     6.141408209168412   Change is   -0.000022365202078
 Root     20 :     6.154259314790584   Change is   -0.000000481354236
 Root     21 :     6.258503863387694   Change is   -0.000000586639012
 Root     22 :     6.315237148182160   Change is   -0.000037430389071
 Root     23 :     6.451494539695830   Change is   -0.000004690729223
 Root     24 :     6.537593578642057   Change is   -0.000005372707872
 Root     25 :     6.570546203916572   Change is   -0.000359285225503
 Root     26 :     6.643298152104157   Change is   -0.000029636272960
 Root     27 :     6.791684616009443   Change is   -0.000035355538580
 Root     28 :     6.795497443860883   Change is   -0.000055160910640
 Root     29 :     6.932548608042856   Change is   -0.000005734101001
 Root     30 :     7.014840835333357   Change is   -0.000183759111538
 Iteration     7 Dimension   364 NMult   358 NNew      6
 CISAX will form     6 AO SS matrices at one time.
 NMat=     6 NSing=     4 JSym2X= 0.
 Root      1 has converged.
 Root      2 has converged.
 Root      3 has converged.
 Root      4 has converged.
 Root      5 has converged.
 Root      6 has converged.
 Root      7 has converged.
 Root      8 has converged.
 Root      9 has converged.
 Root     10 has converged.
 Root     11 has converged.
 Root     12 has converged.
 Root     13 has converged.
 Root     14 has converged.
 Root     15 has converged.
 Root     16 has converged.
 Root     17 has converged.
 Root     18 has converged.
 Root     19 has converged.
 Root     20 has converged.
 Root     21 has converged.
 Root     22 has converged.
 Root     23 has converged.
 Root     24 has converged.
 Root     25 not converged, maximum delta is    0.001211808898440
 Root     26 has converged.
 Root     27 has converged.
 Root     28 has converged.
 Root     29 has converged.
 Root     30 has converged.
 Excitation Energies [eV] at current iteration:
 Root      1 :     3.558163612324910   Change is   -0.000000005971577
 Root      2 :     3.631329058229165   Change is   -0.000000010540217
 Root      3 :     4.128312935588958   Change is   -0.000000002669909
 Root      4 :     4.543975214957398   Change is   -0.000000019483378
 Root      5 :     4.573175978638502   Change is   -0.000000001612917
 Root      6 :     4.595897202695295   Change is   -0.000000004715715
 Root      7 :     4.647496131677344   Change is   -0.000000070953998
 Root      8 :     4.848949040533770   Change is   -0.000000002139605
 Root      9 :     4.906244770648371   Change is   -0.000000005206529
 Root     10 :     5.142940290916924   Change is   -0.000000022076403
 Root     11 :     5.163395944238368   Change is   -0.000000024415894
 Root     12 :     5.230978561171592   Change is   -0.000000006558979
 Root     13 :     5.242260624167542   Change is   -0.000000168722127
 Root     14 :     5.662311953645778   Change is   -0.000000210234208
 Root     15 :     5.927990160865930   Change is   -0.000000939476589
 Root     16 :     6.031005751675537   Change is   -0.000000019378546
 Root     17 :     6.031758228937526   Change is   -0.000000527979244
 Root     18 :     6.087926324879230   Change is   -0.000000083257817
 Root     19 :     6.141408149375393   Change is   -0.000000059793018
 Root     20 :     6.154259287943520   Change is   -0.000000026847064
 Root     21 :     6.258503759674094   Change is   -0.000000103713601
 Root     22 :     6.315236478235660   Change is   -0.000000669946500
 Root     23 :     6.451494122804821   Change is   -0.000000416891009
 Root     24 :     6.537593198950701   Change is   -0.000000379691356
 Root     25 :     6.570496473034988   Change is   -0.000049730881583
 Root     26 :     6.643296890053440   Change is   -0.000001262050717
 Root     27 :     6.791684598458703   Change is   -0.000000017550740
 Root     28 :     6.795491237348233   Change is   -0.000006206512651
 Root     29 :     6.932547715986585   Change is   -0.000000892056270
 Root     30 :     7.014823752011555   Change is   -0.000017083321802
 Iteration     8 Dimension   366 NMult   364 NNew      2
 CISAX will form     2 AO SS matrices at one time.
 NMat=     2 NSing=     0 JSym2X= 0.
 Root      1 has converged.
 Root      2 has converged.
 Root      3 has converged.
 Root      4 has converged.
 Root      5 has converged.
 Root      6 has converged.
 Root      7 has converged.
 Root      8 has converged.
 Root      9 has converged.
 Root     10 has converged.
 Root     11 has converged.
 Root     12 has converged.
 Root     13 has converged.
 Root     14 has converged.
 Root     15 has converged.
 Root     16 has converged.
 Root     17 has converged.
 Root     18 has converged.
 Root     19 has converged.
 Root     20 has converged.
 Root     21 has converged.
 Root     22 has converged.
 Root     23 has converged.
 Root     24 has converged.
 Root     25 has converged.
 Root     26 has converged.
 Root     27 has converged.
 Root     28 has converged.
 Root     29 has converged.
 Root     30 has converged.
 Excitation Energies [eV] at current iteration:
 Root      1 :     3.558163609199666   Change is   -0.000000003125244
 Root      2 :     3.631329040720030   Change is   -0.000000017509135
 Root      3 :     4.128312931716895   Change is   -0.000000003872063
 Root      4 :     4.543975200448271   Change is   -0.000000014509127
 Root      5 :     4.573175976474080   Change is   -0.000000002164421
 Root      6 :     4.595897163957624   Change is   -0.000000038737670
 Root      7 :     4.647495991154678   Change is   -0.000000140522666
 Root      8 :     4.848949038682343   Change is   -0.000000001851427
 Root      9 :     4.906244765899575   Change is   -0.000000004748797
 Root     10 :     5.142940290916924   Change is    0.000000000000000
 Root     11 :     5.163395944238416   Change is    0.000000000000048
 Root     12 :     5.230978558933279   Change is   -0.000000002238313
 Root     13 :     5.242260624167542   Change is    0.000000000000000
 Root     14 :     5.662311953645792   Change is    0.000000000000014
 Root     15 :     5.927990160865888   Change is   -0.000000000000042
 Root     16 :     6.031005730497682   Change is   -0.000000021177855
 Root     17 :     6.031758228937498   Change is   -0.000000000000027
 Root     18 :     6.087926324034027   Change is   -0.000000000845203
 Root     19 :     6.141408113267476   Change is   -0.000000036107917
 Root     20 :     6.154259287943520   Change is    0.000000000000000
 Root     21 :     6.258503759674133   Change is    0.000000000000039
 Root     22 :     6.315236391475651   Change is   -0.000000086760009
 Root     23 :     6.451494122804808   Change is   -0.000000000000013
 Root     24 :     6.537593198950713   Change is    0.000000000000012
 Root     25 :     6.570488340251550   Change is   -0.000008132783438
 Root     26 :     6.643296890053366   Change is   -0.000000000000074
 Root     27 :     6.791684598458727   Change is    0.000000000000024
 Root     28 :     6.795491237348209   Change is   -0.000000000000024
 Root     29 :     6.932547715986608   Change is    0.000000000000023
 Root     30 :     7.014823752011555   Change is    0.000000000000000
 Convergence achieved on expansion vectors.
 ***********************************************************************
 Excited states from <AA,BB:AA,BB> singles matrix:
 ***********************************************************************
 
 1PDM for each excited state written to RWF  633
 Ground to excited state transition densities written to RWF  633
 Ground to excited state transition electric dipole moments (Au):
       state          X           Y           Z        Dip. S.      Osc.
         1         0.0000     -0.0000      0.0000      0.0000      0.0000
         2         0.0000      0.0000      0.0000      0.0000      0.0000
         3        -0.0000     -0.0000      0.0000      0.0000      0.0000
         4        -0.0000      0.0000      0.0000      0.0000      0.0000
         5         0.0000      0.0000     -0.0000      0.0000      0.0000
         6        -0.0000      0.0000      0.0000      0.0000      0.0000
         7         0.0000      0.0000      0.0000      0.0000      0.0000
         8         0.0000     -0.0000     -0.0000      0.0000      0.0000
         9        -0.0000      0.0000     -0.0000      0.0000      0.0000
        10         0.4409     -0.9178      0.0369      1.0382      0.1308
        11         0.1119     -0.8666      0.0505      0.7661      0.0969
        12         0.0000      0.0000      0.0000      0.0000      0.0000
        13        -0.1055     -0.0372     -0.0401      0.0141      0.0018
        14        -0.7737     -0.6426      0.0003      1.0116      0.1403
        15         1.0340     -0.2668     -0.1940      1.1780      0.1711
        16         0.0000      0.0000      0.0000      0.0000      0.0000
        17        -0.3159     -0.1891     -0.2588      0.2026      0.0299
        18        -0.0000      0.0000      0.0000      0.0000      0.0000
        19        -0.0000      0.0000      0.0000      0.0000      0.0000
        20         0.2137      0.1946     -0.0020      0.0836      0.0126
        21         0.4481      0.1359      0.4248      0.3997      0.0613
        22         0.0000     -0.0000     -0.0000      0.0000      0.0000
        23        -0.3506      0.7259     -0.0238      0.6504      0.1028
        24         0.4955     -0.1614      0.7235      0.7949      0.1273
        25        -0.0000      0.0000      0.0000      0.0000      0.0000
        26        -1.7740     -0.4112      0.2352      3.3715      0.5487
        27         0.2607     -0.5230     -0.2326      0.3955      0.0658
        28         0.0815      0.2527      0.2952      0.1577      0.0263
        29        -0.0482     -0.1683     -0.1558      0.0549      0.0093
        30         0.6683      0.8947      0.0377      1.2484      0.2146
 Ground to excited state transition velocity dipole moments (Au):
       state          X           Y           Z        Dip. S.      Osc.
         1         0.0000      0.0000     -0.0000      0.0000      0.0000
         2        -0.0000     -0.0000      0.0000      0.0000      0.0000
         3         0.0000      0.0000     -0.0000      0.0000      0.0000
         4         0.0000     -0.0000      0.0000      0.0000      0.0000
         5        -0.0000      0.0000      0.0000      0.0000      0.0000
         6        -0.0000      0.0000     -0.0000      0.0000      0.0000
         7        -0.0000      0.0000     -0.0000      0.0000      0.0000
         8        -0.0000      0.0000      0.0000      0.0000      0.0000
         9        -0.0000      0.0000      0.0000      0.0000      0.0000
        10        -0.0818      0.1671     -0.0090      0.0347      0.1224
        11        -0.0220      0.1578     -0.0042      0.0254      0.0893
        12         0.0000     -0.0000      0.0000      0.0000      0.0000
        13         0.0198      0.0068      0.0087      0.0005      0.0018
        14         0.1597      0.1300     -0.0016      0.0424      0.1359
        15        -0.2152      0.0572      0.0426      0.0514      0.1573
        16        -0.0000     -0.0000     -0.0000      0.0000      0.0000
        17         0.0672      0.0435      0.0607      0.0101      0.0304
        18         0.0000     -0.0000      0.0000      0.0000      0.0000
        19         0.0000     -0.0000      0.0000      0.0000      0.0000
        20        -0.0462     -0.0412     -0.0055      0.0039      0.0114
        21        -0.0995     -0.0272     -0.1003      0.0207      0.0600
        22        -0.0000      0.0000      0.0000      0.0000      0.0000
        23         0.0787     -0.1659      0.0051      0.0337      0.0949
        24        -0.1125      0.0383     -0.1818      0.0472      0.1309
        25         0.0000     -0.0000     -0.0000      0.0000      0.0000
        26         0.4215      0.0987     -0.0558      0.1905      0.5202
        27        -0.0676      0.1310      0.0618      0.0256      0.0683
        28        -0.0208     -0.0615     -0.0725      0.0095      0.0253
        29         0.0092      0.0421      0.0422      0.0036      0.0095
        30        -0.1724     -0.2219     -0.0100      0.0790      0.2044
 Ground to excited state transition magnetic dipole moments (Au):
       state          X           Y           Z
         1        -0.0000      0.0000      0.0000
         2         0.0000      0.0000      0.0000
         3         0.0000      0.0000      0.0000
         4         0.0000      0.0000      0.0000
         5         0.0000      0.0000      0.0000
         6         0.0000     -0.0000     -0.0000
         7        -0.0000      0.0000      0.0000
         8         0.0000      0.0000     -0.0000
         9         0.0000      0.0000     -0.0000
        10         0.0915     -0.0820     -0.1853
        11         0.0115      0.0001      0.0648
        12         0.0000      0.0000      0.0000
        13        -0.0273     -0.0233      0.0910
[...]
    29  H    0.000000   0.000000   0.000000  -0.000000  -0.000002   0.014801
    30  H   -0.000011   0.000000   0.000000  -0.000002   0.000091  -0.078924
              13         14         15         16         17         18
     1  N   -0.000000   0.000000   0.000000   0.000000  -0.000001   0.379149
     2  C   -0.000523   0.000009   0.000002   0.000020   0.000998  -0.013411
     3  C    0.000587  -0.000008  -0.000008  -0.000133  -0.000299   0.008297
     4  C    0.001988   0.000076   0.000137  -0.000002  -0.006279  -0.020542
     5  N   -0.065721   0.008090  -0.000236   0.007275  -0.066882   0.000390
     6  C    0.002796  -0.001326   0.000096  -0.000245   0.002920   0.000505
     7  C   -0.000643   0.000059  -0.000007   0.000012  -0.000849   0.004391
     8  C    0.000070   0.000003   0.000000  -0.000000   0.000012   0.000660
     9  C   -0.000027   0.000002  -0.000000   0.000000  -0.000006   0.000007
    10  C   -0.000217  -0.000008   0.000002   0.000003   0.000053  -0.000028
    11  C   -0.005115  -0.000159  -0.000032   0.000061  -0.000561  -0.000080
    12  C    0.253813   0.132511  -0.167226   0.126706   0.227227  -0.000018
    13  C    5.100186   0.265816   0.091761  -0.144550   0.069433   0.000000
    14  C    0.265816   5.044852   0.269722   0.107981  -0.150724  -0.000000
    15  C    0.091761   0.269722   5.060541   0.276901   0.091657   0.000000
    16  C   -0.144550   0.107981   0.276901   5.021358   0.277150  -0.000000
    17  C    0.069433  -0.150724   0.091657   0.277150   5.163156   0.000001
    18  H    0.000000  -0.000000   0.000000  -0.000000   0.000001   0.482943
    19  H   -0.000000   0.000000  -0.000000   0.000000  -0.000000  -0.025058
    20  H   -0.000008  -0.000001   0.000000   0.000021   0.000523  -0.000103
    21  H    0.000088  -0.000000   0.000000   0.000000  -0.000019   0.000579
    22  H   -0.000003  -0.000000   0.000000   0.000000   0.000000   0.000019
    23  H   -0.000000   0.000000  -0.000000   0.000000  -0.000000  -0.000002
    24  H    0.000014  -0.000001   0.000000  -0.000000   0.000001  -0.000000
    25  H   -0.000937  -0.000278  -0.000005   0.000175  -0.000912  -0.000003
    26  H    0.447162  -0.061353   0.013318  -0.002271   0.014419  -0.000000
    27  H   -0.063212   0.443667  -0.064742   0.012637  -0.001415   0.000000
    28  H    0.013711  -0.065347   0.447389  -0.065892   0.013819  -0.000000
    29  H   -0.001387   0.012522  -0.063772   0.442748  -0.064127  -0.000000
    30  H    0.013941  -0.002183   0.013563  -0.056010   0.446584   0.000001
              19         20         21         22         23         24
     1  N    0.361457  -0.001293   0.000986  -0.000008   0.000000  -0.000000
     2  C   -0.006294  -0.057090   0.000125   0.000012  -0.000000   0.000001
     3  C   -0.011605   0.472617  -0.000450  -0.000001  -0.000000  -0.000000
     4  C    0.011890  -0.052573   0.003058  -0.000026  -0.000000  -0.000002
     5  N   -0.000055  -0.001280  -0.009710  -0.000139   0.000008  -0.000127
     6  C   -0.000018  -0.000109  -0.082420   0.015023  -0.001802   0.014290
     7  C   -0.000023  -0.000017   0.447385  -0.066066   0.014015  -0.001384
     8  C    0.000000  -0.000000  -0.055628   0.443690  -0.066493   0.012616
     9  C   -0.000000  -0.000000   0.013408  -0.063228   0.448282  -0.064638
    10  C   -0.000000  -0.000000  -0.002255   0.012592  -0.065050   0.443826
    11  C    0.000001   0.000003   0.013819  -0.001471   0.013708  -0.062470
    12  C    0.000009   0.000720  -0.000478   0.000008   0.000000  -0.000018
    13  C   -0.000000  -0.000008   0.000088  -0.000003  -0.000000   0.000014
    14  C    0.000000  -0.000001  -0.000000  -0.000000   0.000000  -0.000001
    15  C   -0.000000   0.000000   0.000000   0.000000  -0.000000   0.000000
    16  C    0.000000   0.000021   0.000000   0.000000   0.000000  -0.000000
    17  C   -0.000000   0.000523  -0.000019   0.000000  -0.000000   0.000001
    18  H   -0.025058  -0.000103   0.000579   0.000019  -0.000002  -0.000000
    19  H    0.483514   0.000553  -0.000010   0.000000  -0.000000   0.000000
    20  H    0.000553   0.554628  -0.000002   0.000000  -0.000000  -0.000000
    21  H   -0.000010  -0.000002   0.667998  -0.011819  -0.000181   0.000021
    22  H    0.000000   0.000000  -0.011819   0.644655  -0.011261  -0.000203
    23  H   -0.000000  -0.000000  -0.000181  -0.011261   0.636818  -0.011109
    24  H    0.000000  -0.000000   0.000021  -0.000203  -0.011109   0.636738
    25  H   -0.000000  -0.000000  -0.000134   0.000016  -0.000163  -0.011153
    26  H   -0.000000  -0.000001   0.000112  -0.000001  -0.000000  -0.000001
    27  H   -0.000000  -0.000000  -0.000000  -0.000000   0.000000  -0.000000
    28  H    0.000000   0.000000  -0.000000   0.000000  -0.000000   0.000000
    29  H   -0.000000  -0.000001   0.000000  -0.000000   0.000000  -0.000000
    30  H   -0.000001  -0.000028  -0.000001  -0.000000  -0.000000  -0.000000
              25         26         27         28         29         30
     1  N   -0.000000  -0.000000  -0.000000   0.000000  -0.000000  -0.000004
     2  C   -0.000087  -0.000060  -0.000000   0.000000  -0.000002  -0.000416
     3  C   -0.000040  -0.000064   0.000000  -0.000000   0.000014   0.000542
     4  C   -0.000570  -0.000766  -0.000004  -0.000000  -0.000037   0.004394
     5  N   -0.012790  -0.013012  -0.000129   0.000009  -0.000133  -0.012490
     6  C   -0.067713   0.008980  -0.000017   0.000000   0.000007  -0.000436
     7  C    0.014678  -0.001342   0.000002   0.000000   0.000000  -0.000011
     8  C   -0.002370   0.000184  -0.000000   0.000000   0.000000   0.000000
     9  C    0.013331  -0.000004   0.000000  -0.000000   0.000000   0.000000
    10  C   -0.062376  -0.000275  -0.000001   0.000000  -0.000000  -0.000002
    11  C    0.449233  -0.000996   0.000014  -0.000000  -0.000002   0.000091
    12  C    0.008354  -0.068524   0.014480  -0.001704   0.014801  -0.078924
    13  C   -0.000937   0.447162  -0.063212   0.013711  -0.001387   0.013941
    14  C   -0.000278  -0.061353   0.443667  -0.065347   0.012522  -0.002183
    15  C   -0.000005   0.013318  -0.064742   0.447389  -0.063772   0.013563
    16  C    0.000175  -0.002271   0.012637  -0.065892   0.442748  -0.056010
    17  C   -0.000912   0.014419  -0.001415   0.013819  -0.064127   0.446584
    18  H   -0.000003  -0.000000   0.000000  -0.000000  -0.000000   0.000001
    19  H   -0.000000  -0.000000  -0.000000   0.000000  -0.000000  -0.000001
    20  H   -0.000000  -0.000001  -0.000000   0.000000  -0.000001  -0.000028
    21  H   -0.000134   0.000112  -0.000000  -0.000000   0.000000  -0.000001
    22  H    0.000016  -0.000001  -0.000000   0.000000  -0.000000  -0.000000
    23  H   -0.000163  -0.000000   0.000000  -0.000000   0.000000  -0.000000
    24  H   -0.011153  -0.000001  -0.000000   0.000000  -0.000000  -0.000000
    25  H    0.642371  -0.000017  -0.000001  -0.000000  -0.000001   0.000082
    26  H   -0.000017   0.649208  -0.011374  -0.000171   0.000017  -0.000134
    27  H   -0.000001  -0.011374   0.641026  -0.011201  -0.000204   0.000018
    28  H   -0.000000  -0.000171  -0.011201   0.639397  -0.011253  -0.000186
    29  H   -0.000001   0.000017  -0.000204  -0.011253   0.644942  -0.011892
    30  H    0.000082  -0.000134   0.000018  -0.000186  -0.011892   0.670874
 Mulliken charges:
               1
     1  N    0.019918
     2  C    0.107350
     3  C   -0.171276
     4  C    0.219200
     5  N   -0.131303
     6  C    0.069217
     7  C   -0.045556
     8  C   -0.009098
     9  C    0.030997
    10  C   -0.003122
    11  C    0.026792
    12  C    0.076221
    13  C    0.020975
    14  C   -0.003924
    15  C    0.030938
    16  C   -0.003943
    17  C   -0.015881
    18  H    0.182302
    19  H    0.185637
    20  H    0.083438
    21  H    0.015526
    22  H    0.038212
    23  H    0.043229
    24  H    0.043600
    25  H    0.031311
    26  H    0.026967
    27  H    0.040456
    28  H    0.041428
    29  H    0.037761
    30  H    0.012627
 Sum of Mulliken charges =   1.00000
 Mulliken charges with hydrogens summed into heavy atoms:
               1
     1  N    0.387858
     2  C    0.107350
     3  C   -0.087838
     4  C    0.219200
     5  N   -0.131303
     6  C    0.069217
     7  C   -0.030029
     8  C    0.029114
     9  C    0.074226
    10  C    0.040478
    11  C    0.058103
    12  C    0.076221
    13  C    0.047942
    14  C    0.036533
    15  C    0.072366
    16  C    0.033818
    17  C   -0.003255
 Electronic spatial extent (au):  <R**2>=           4086.7830
 Charge=              1.0000 electrons
 Dipole moment (field-independent basis, Debye):
    X=             -3.6658    Y=              6.1959    Z=              0.2080  Tot=              7.2021
 Quadrupole moment (field-independent basis, Debye-Ang):
   XX=            -54.0213   YY=            -54.6455   ZZ=            -91.9367
   XY=            -10.4402   XZ=              1.7717   YZ=              0.7193
 Traceless Quadrupole moment (field-independent basis, Debye-Ang):
   XX=             12.8465   YY=             12.2223   ZZ=            -25.0688
   XY=            -10.4402   XZ=              1.7717   YZ=              0.7193
 Octapole moment (field-independent basis, Debye-Ang**2):
  XXX=            -18.0837  YYY=            113.1614  ZZZ=              0.7594  XYY=            -67.1360
  XXY=             17.0779  XXZ=             -2.0785  XZZ=             -1.1518  YZZ=             -5.4197
  YYZ=              7.4860  XYZ=             13.0142
 Hexadecapole moment (field-independent basis, Debye-Ang**3):
 XXXX=          -2582.9894 YYYY=          -1323.5147 ZZZZ=           -384.0828 XXXY=           -160.8052
 XXXZ=             57.8191 YYYX=           -152.3141 YYYZ=            -31.2169 ZZZX=              9.2208
 ZZZY=              1.1693 XXYY=           -569.3061 XXZZ=           -586.3930 YYZZ=           -357.7757
 XXYZ=             52.3398 YYXZ=            -44.5093 ZZXY=             -2.5134
 N-N= 1.081985710732D+03 E-N=-3.739466331336D+03  KE= 6.795808192708D+02
 Leave Link  601 at Wed May 11 05:33:44 2022, MaxMem=  6442450944 cpu:               0.9 elap:               0.1
 (Enter /home1/apps/gaussian/16rA.03/g16/l9999.exe)
 Electronic transition elements 
                 1             2             3             4             5 
      1  -0.687418D+03 -0.687415D+03 -0.687397D+03 -0.687382D+03 -0.687381D+03
      2   0.000000D+00  0.000000D+00  0.000000D+00  0.000000D+00  0.000000D+00
      3   0.000000D+00  0.000000D+00  0.000000D+00  0.000000D+00  0.000000D+00
      4   0.000000D+00  0.000000D+00  0.000000D+00  0.000000D+00  0.000000D+00
      5   0.000000D+00  0.000000D+00  0.000000D+00  0.000000D+00  0.000000D+00
      6   0.000000D+00  0.000000D+00  0.000000D+00  0.000000D+00  0.000000D+00
      7   0.000000D+00  0.000000D+00  0.000000D+00  0.000000D+00  0.000000D+00
      8   0.000000D+00  0.000000D+00  0.000000D+00  0.000000D+00  0.000000D+00
      9   0.000000D+00  0.000000D+00  0.000000D+00  0.000000D+00  0.000000D+00
     10   0.000000D+00  0.000000D+00  0.000000D+00  0.000000D+00  0.000000D+00
     11   0.000000D+00  0.000000D+00  0.000000D+00  0.000000D+00  0.000000D+00
     12   0.000000D+00  0.000000D+00  0.000000D+00  0.000000D+00  0.000000D+00
     13   0.000000D+00  0.000000D+00  0.000000D+00  0.000000D+00  0.000000D+00
     14   0.000000D+00  0.000000D+00  0.000000D+00  0.000000D+00  0.000000D+00
     15   0.000000D+00  0.000000D+00  0.000000D+00  0.000000D+00  0.000000D+00
     16   0.000000D+00  0.000000D+00  0.000000D+00  0.000000D+00  0.000000D+00
                 6             7             8             9            10 
      1  -0.687380D+03 -0.687378D+03 -0.687371D+03 -0.687369D+03 -0.687360D+03
      2   0.000000D+00  0.000000D+00  0.000000D+00  0.000000D+00  0.440920D+00
      3   0.000000D+00  0.000000D+00  0.000000D+00  0.000000D+00 -0.917837D+00
      4   0.000000D+00  0.000000D+00  0.000000D+00  0.000000D+00  0.369135D-01
      5   0.000000D+00  0.000000D+00  0.000000D+00  0.000000D+00 -0.817694D-01
      6   0.000000D+00  0.000000D+00  0.000000D+00  0.000000D+00  0.167133D+00
      7   0.000000D+00  0.000000D+00  0.000000D+00  0.000000D+00 -0.900471D-02
      8   0.000000D+00  0.000000D+00  0.000000D+00  0.000000D+00  0.915432D-01
      9   0.000000D+00  0.000000D+00  0.000000D+00  0.000000D+00 -0.819840D-01
     10   0.000000D+00  0.000000D+00  0.000000D+00  0.000000D+00 -0.185343D+00
     11   0.000000D+00  0.000000D+00  0.000000D+00  0.000000D+00 -0.875845D+00
     12   0.000000D+00  0.000000D+00  0.000000D+00  0.000000D+00  0.668360D+00
     13   0.000000D+00  0.000000D+00  0.000000D+00  0.000000D+00 -0.694949D-01
     14   0.000000D+00  0.000000D+00  0.000000D+00  0.000000D+00 -0.321869D-01
     15   0.000000D+00  0.000000D+00  0.000000D+00  0.000000D+00  0.115221D-01
     16   0.000000D+00  0.000000D+00  0.000000D+00  0.000000D+00 -0.202109D-01
                11            12            13            14            15 
      1  -0.687359D+03 -0.687357D+03 -0.687356D+03 -0.687341D+03 -0.687331D+03
      2   0.111894D+00  0.000000D+00 -0.105497D+00 -0.773720D+00  0.103403D+01
      3  -0.866635D+00  0.000000D+00 -0.372039D-01 -0.642597D+00 -0.266756D+00
      4   0.505002D-01  0.000000D+00 -0.400672D-01  0.321977D-03 -0.194001D+00
      5  -0.220139D-01  0.000000D+00  0.198081D-01  0.159712D+00 -0.215195D+00
      6   0.157844D+00  0.000000D+00  0.677226D-02  0.130019D+00  0.572118D-01
      7  -0.424091D-02  0.000000D+00  0.868318D-02 -0.160773D-02  0.425890D-01
      8   0.115073D-01  0.000000D+00 -0.273158D-01 -0.143936D+00  0.106762D+00
      9   0.731368D-04  0.000000D+00 -0.232691D-01 -0.148333D+00 -0.102971D+00
     10   0.647589D-01  0.000000D+00  0.909537D-01  0.244935D+00  0.960688D+00
     11  -0.713642D+00  0.000000D+00  0.589207D-01  0.274910D+00 -0.391014D+00
     12   0.544023D+00  0.000000D+00 -0.318283D-01 -0.145568D+00  0.334621D+00
     13  -0.648449D-01  0.000000D+00 -0.574021D-02 -0.579303D-01 -0.558993D-01
     14  -0.203635D+00  0.000000D+00 -0.295404D-01 -0.101932D+01 -0.108198D+00
     15  -0.308717D-01  0.000000D+00 -0.210329D-01  0.128652D-01  0.789107D-01
     16  -0.459889D-01  0.000000D+00 -0.884786D-02  0.145483D+00 -0.570065D-01
                16            17            18            19            20 
      1  -0.687327D+03 -0.687327D+03 -0.687325D+03 -0.687323D+03 -0.687323D+03
      2   0.000000D+00 -0.315935D+00  0.000000D+00  0.000000D+00  0.213748D+00
      3   0.000000D+00 -0.189064D+00  0.000000D+00  0.000000D+00  0.194593D+00
      4   0.000000D+00 -0.258837D+00  0.000000D+00  0.000000D+00 -0.201400D-02
      5   0.000000D+00  0.672023D-01  0.000000D+00  0.000000D+00 -0.461668D-01
      6   0.000000D+00  0.434687D-01  0.000000D+00  0.000000D+00 -0.412114D-01
      7   0.000000D+00  0.607255D-01  0.000000D+00  0.000000D+00 -0.546817D-02
      8   0.000000D+00 -0.342271D-01  0.000000D+00  0.000000D+00  0.159171D-01
      9   0.000000D+00 -0.464620D+00  0.000000D+00  0.000000D+00 -0.258908D+00
     10   0.000000D+00  0.466366D+00  0.000000D+00  0.000000D+00 -0.218766D+00
     11   0.000000D+00  0.299753D+00  0.000000D+00  0.000000D+00  0.309617D+00
     12   0.000000D+00 -0.155877D+00  0.000000D+00  0.000000D+00 -0.264844D+00
     13   0.000000D+00 -0.217911D-01  0.000000D+00  0.000000D+00  0.754990D-02
     14   0.000000D+00  0.296630D+00  0.000000D+00  0.000000D+00  0.329287D+00
     15   0.000000D+00  0.355036D+00  0.000000D+00  0.000000D+00  0.217821D+00
     16   0.000000D+00 -0.522554D-01  0.000000D+00  0.000000D+00  0.477489D-01
                21            22            23            24            25 
      1  -0.687319D+03 -0.687317D+03 -0.687312D+03 -0.687309D+03 -0.687307D+03
      2   0.448074D+00  0.000000D+00 -0.350630D+00  0.495483D+00  0.000000D+00
      3   0.135863D+00  0.000000D+00  0.725899D+00 -0.161353D+00  0.000000D+00
      4   0.424781D+00  0.000000D+00 -0.237999D-01  0.723470D+00  0.000000D+00
      5  -0.995208D-01  0.000000D+00  0.787398D-01 -0.112533D+00  0.000000D+00
      6  -0.272495D-01  0.000000D+00 -0.165858D+00  0.382973D-01  0.000000D+00
      7  -0.100336D+00  0.000000D+00  0.506619D-02 -0.181795D+00  0.000000D+00
      8   0.330950D+00  0.000000D+00 -0.844031D-01  0.432871D+00  0.000000D+00
      9  -0.352789D+00  0.000000D+00  0.127635D+00 -0.286288D+00  0.000000D+00
     10  -0.651288D+00  0.000000D+00 -0.232077D+00 -0.147596D+01  0.000000D+00
     11   0.381167D+00  0.000000D+00  0.751414D+00  0.146595D+00  0.000000D+00
     12  -0.165846D+00  0.000000D+00 -0.155202D+00 -0.253590D+00  0.000000D+00
     13  -0.252935D-02  0.000000D+00  0.916856D-01 -0.469673D-01  0.000000D+00
     14   0.197136D+00  0.000000D+00  0.354490D+00 -0.337150D+00  0.000000D+00
     15   0.230306D+00  0.000000D+00 -0.959603D-01  0.155546D+00  0.000000D+00
     16   0.219086D+00  0.000000D+00 -0.473810D-01  0.390309D+00  0.000000D+00
                26            27            28            29            30 
      1  -0.687305D+03 -0.687299D+03 -0.687299D+03 -0.687294D+03 -0.687291D+03
      2  -0.177401D+01  0.260661D+00  0.814730D-01 -0.482084D-01  0.668271D+00
      3  -0.411155D+00 -0.522969D+00  0.252745D+00 -0.168287D+00  0.894666D+00
      4   0.235201D+00 -0.232575D+00  0.295228D+00 -0.155758D+00  0.376931D-01
      5   0.421485D+00 -0.675803D-01 -0.208498D-01  0.918072D-02 -0.172352D+00
      6   0.986981D-01  0.131043D+00 -0.615363D-01  0.420712D-01 -0.221905D+00
      7  -0.557903D-01  0.617566D-01 -0.724746D-01  0.422095D-01 -0.995055D-02
      8   0.422874D-01  0.929550D-01 -0.193969D-01  0.889931D-01  0.220008D-02
      9  -0.217168D+00 -0.607677D+00  0.113291D+01 -0.451545D+00 -0.627704D-01
     10  -0.642790D+00  0.220512D+00 -0.688049D+00  0.279673D+00 -0.513649D-01
     11   0.117000D+01 -0.599821D+00 -0.127066D+01  0.217624D+00  0.739354D+00
     12  -0.747564D+00  0.343280D+00  0.823392D+00 -0.246758D+00 -0.436290D-01
     13  -0.196907D-01 -0.431002D-01  0.647751D-01 -0.506042D-02  0.157790D-01
     14  -0.125888D+01  0.949859D+00 -0.433690D+00  0.294404D+00  0.926116D+00
     15   0.843824D-01  0.441318D+00 -0.978572D+00  0.377008D+00  0.660976D-01
     16   0.299451D+00 -0.121289D+00 -0.897401D-01 -0.169775D-02  0.155321D-01

 Test job not archived.
 1\1\GINC-C505-103\SP\RLC-wHPBE TD-FC\def2SVP\C15H13N2(1+)\TG878040\11-
 May-2022\0\\#P LC-wHPBE/Def2SVP iop(3/107=0225700000, 3/108=0225700000
 ) td=(50-50,nstates=15)\\H13 C15 N2\\1,1\N,0,-2.519752,3.020298,0.1072
 94\C,0,-1.24603,2.711008,0.007759\C,0,0.0773,3.051229,-0.131739\C,0,-0
 .25209,1.712085,-0.047322\N,0,0.056953,0.43377,-0.021433\C,0,-1.004734
 ,-0.549494,0.038879\C,0,-2.072259,-0.471928,-0.863862\C,0,-3.1091,-1.4
 0791,-0.779653\C,0,-3.065084,-2.418333,0.186056\C,0,-1.982448,-2.49626
 4,1.070002\C,0,-0.946615,-1.561202,1.003719\C,0,1.444051,0.014822,-0.0
 56527\C,0,1.830552,-0.97823,-0.963483\C,0,3.168758,-1.37651,-1.003088\
 C,0,4.107812,-0.785095,-0.150235\C,0,3.708105,0.203537,0.754186\C,0,2.
 36962,0.604384,0.810702\H,0,-3.220616,2.288308,0.222379\H,0,-2.82815,3
 .99247,0.090787\H,0,0.843701,3.824287,-0.230168\H,0,-2.078219,0.295297
 ,-1.651216\H,0,-3.945206,-1.358704,-1.48972\H,0,-3.874893,-3.157207,0.
 244083\H,0,-1.944487,-3.292252,1.82515\H,0,-0.096521,-1.614263,1.69624
 6\H,0,1.089668,-1.435062,-1.632456\H,0,3.480987,-2.153931,-1.71253\H,0
 ,5.158333,-1.101465,-0.187746\H,0,4.440228,0.660409,1.43275\H,0,2.0477
 4,1.361038,1.539049\\Version=ES64L-G16RevA.03\State=1-A\HF=-687.548903
 \RMSD=9.218e-09\PG=C01 [X(C15H13N2)]\\@


 IMAGINATION WILL OFTEN CARRY US TO WORLDS THAT NEVER WERE.
 BUT WITHOUT IT, WE GO NOWHERE. -- CARL SAGAN (COSMOS)
 Job cpu time:       0 days  1 hours 46 minutes 32.9 seconds.
 Elapsed time:       0 days  0 hours  6 minutes 41.0 seconds.
 File lengths (MBytes):  RWF=   1446 Int=      0 D2E=      0 Chk=     97 Scr=      1
 Normal termination of Gaussian 16 at Wed May 11 05:33:44 2022.
