 Entering Gaussian System, Link 0=/mnt/gpfs3_amd/share/apps/amd/gaussian/g16-A.03/g16/g16
 Input=/scratch/rdu230/d3tales/high_throughput/runfiles//05XICU/gaussian/gas_phase/opt/opt_anion1.com
 Output=/scratch/rdu230/d3tales/high_throughput/runfiles//05XICU/gaussian/gas_phase/opt/opt_anion1.log
 Initial command:
 /mnt/gpfs3_amd/share/apps/amd/gaussian/g16-A.03/g16/l1.exe "/scratch/rdu230/d3tales/high_throughput/runfiles/05XICU/gaussian/gas_phase/opt/Gau-1953041.inp" -scrdir="/scratch/rdu230/d3tales/high_throughput/runfiles/05XICU/gaussian/gas_phase/opt/"
 Entering Link 1 = /mnt/gpfs3_amd/share/apps/amd/gaussian/g16-A.03/g16/l1.exe PID=   1953042.
  
 Copyright (c) 1988,1990,1992,1993,1995,1998,2003,2009,2016,
            Gaussian, Inc.  All Rights Reserved.
  
 This is part of the Gaussian(R) 16 program.  It is based on
 the Gaussian(R) 09 system (copyright 2009, Gaussian, Inc.),
 the Gaussian(R) 03 system (copyright 2003, Gaussian, Inc.),
 the Gaussian(R) 98 system (copyright 1998, Gaussian, Inc.),
 the Gaussian(R) 94 system (copyright 1995, Gaussian, Inc.),
 the Gaussian 92(TM) system (copyright 1992, Gaussian, Inc.),
 the Gaussian 90(TM) system (copyright 1990, Gaussian, Inc.),
 the Gaussian 88(TM) system (copyright 1988, Gaussian, Inc.),
 the Gaussian 86(TM) system (copyright 1986, Carnegie Mellon
 University), and the Gaussian 82(TM) system (copyright 1983,
 Carnegie Mellon University). Gaussian is a federally registered
 trademark of Gaussian, Inc.
  
 This software contains proprietary and confidential information,
 including trade secrets, belonging to Gaussian, Inc.
  
 This software is provided under written license and may be
 used, copied, transmitted, or stored only in accord with that
 written license.
  
 The following legend is applicable only to US Government
 contracts under FAR:
  
                    RESTRICTED RIGHTS LEGEND
  
 Use, reproduction and disclosure by the US Government is
 subject to restrictions as set forth in subparagraphs (a)
 and (c) of the Commercial Computer Software - Restricted
 Rights clause in FAR 52.227-19.
  
 Gaussian, Inc.
 340 Quinnipiac St., Bldg. 40, Wallingford CT 06492
  
  
 ---------------------------------------------------------------
 Warning -- This program may not be used in any manner that
 competes with the business of Gaussian, Inc. or will provide
 assistance to any competitor of Gaussian, Inc.  The licensee
 of this program is prohibited from giving any competitor of
 Gaussian, Inc. access to this program.  By using this program,
 the user acknowledges that Gaussian, Inc. is engaged in the
 business of creating and licensing software in the field of
 computational chemistry and represents and warrants to the
 licensee that it is not a competitor of Gaussian, Inc. and that
 it will not use this program in any manner prohibited above.
 ---------------------------------------------------------------
  

 Cite this work as:
 Gaussian 16, Revision A.03,
 M. J. Frisch, G. W. Trucks, H. B. Schlegel, G. E. Scuseria, 
 M. A. Robb, J. R. Cheeseman, G. Scalmani, V. Barone, 
 G. A. Petersson, H. Nakatsuji, X. Li, M. Caricato, A. V. Marenich, 
 J. Bloino, B. G. Janesko, R. Gomperts, B. Mennucci, H. P. Hratchian, 
 J. V. Ortiz, A. F. Izmaylov, J. L. Sonnenberg, D. Williams-Young, 
 F. Ding, F. Lipparini, F. Egidi, J. Goings, B. Peng, A. Petrone, 
 T. Henderson, D. Ranasinghe, V. G. Zakrzewski, J. Gao, N. Rega, 
 G. Zheng, W. Liang, M. Hada, M. Ehara, K. Toyota, R. Fukuda, 
 J. Hasegawa, M. Ishida, T. Nakajima, Y. Honda, O. Kitao, H. Nakai, 
 T. Vreven, K. Throssell, J. A. Montgomery, Jr., J. E. Peralta, 
 F. Ogliaro, M. J. Bearpark, J. J. Heyd, E. N. Brothers, K. N. Kudin, 
 V. N. Staroverov, T. A. Keith, R. Kobayashi, J. Normand, 
 K. Raghavachari, A. P. Rendell, J. C. Burant, S. S. Iyengar, 
 J. Tomasi, M. Cossi, J. M. Millam, M. Klene, C. Adamo, R. Cammi, 
 J. W. Ochterski, R. L. Martin, K. Morokuma, O. Farkas, 
 J. B. Foresman, and D. J. Fox, Gaussian, Inc., Wallingford CT, 2016.
 
 ******************************************
 Gaussian 16:  AM64L-G16RevA.03 25-Dec-2016
                29-Aug-2022 
 ******************************************
 %chk=/scratch/rdu230/d3tales/high_throughput/runfiles//05XICU/gaussian/gas_phase
 /opt/opt_anion1.chk
 %mem=48GB
 %nprocshared=16
 Will use up to   16 processors via shared memory.
 ----------------------------------------------------------------------
 #P LC-wHPBE/Def2SVP iop(3/107=0499400000, 3/108=0499400000) opt scf(ma
 xcyc=512)
 ----------------------------------------------------------------------
 1/18=20,19=15,26=3,38=1/1,3;
 2/9=110,12=2,17=6,18=5,40=1/2;
 3/5=43,7=101,11=2,25=1,30=1,71=1,74=-71,107=499400000,108=499400000/1,2,3;
 4//1;
 5/5=2,7=512,38=5/2;
 6/7=2,8=2,9=2,10=2,28=1/1;
 7//1,2,3,16;
 1/18=20,19=15,26=3/3(2);
 2/9=110/2;
 99//99;
 2/9=110/2;
 3/5=43,7=101,11=2,25=1,30=1,71=1,74=-71,107=499400000,108=499400000/1,2,3;
 4/5=5,16=3,69=1/1;
 5/5=2,7=512,38=5/2;
 7//1,2,3,16;
 1/18=20,19=15,26=3/3(-5);
 2/9=110/2;
 6/7=2,8=2,9=2,10=2,19=2,28=1/1;
 99/9=1/99;
 Leave Link    1 at Mon Aug 29 15:01:59 2022, MaxMem=  6442450944 cpu:               2.4 elap:               0.2
 (Enter /mnt/gpfs3_amd/share/apps/amd/gaussian/g16-A.03/g16/l101.exe)
 -----
 H2 O1
 -----
 Symbolic Z-matrix:
 Charge = -1 Multiplicity = 2
 O                    -0.0057    0.38516   0. 
 H                    -0.79608  -0.19468   0. 
 H                     0.80178  -0.19048   0. 
 
 ITRead=  0  0  0
 MicOpt= -1 -1 -1
 NAtoms=      3 NQM=        3 NQMF=       0 NMMI=      0 NMMIF=      0
                NMic=       0 NMicF=      0.
                    Isotopes and Nuclear Properties:
 (Nuclear quadrupole moments (NQMom) in fm**2, nuclear magnetic moments (NMagM)
  in nuclear magnetons)

  Atom         1           2           3
 IAtWgt=          16           1           1
 AtmWgt=  15.9949146   1.0078250   1.0078250
 NucSpn=           0           1           1
 AtZEff=  -0.0000000  -0.0000000  -0.0000000
 NQMom=    0.0000000   0.0000000   0.0000000
 NMagM=    0.0000000   2.7928460   2.7928460
 AtZNuc=   8.0000000   1.0000000   1.0000000
 Leave Link  101 at Mon Aug 29 15:02:00 2022, MaxMem=  6442450944 cpu:               2.5 elap:               0.2
 (Enter /mnt/gpfs3_amd/share/apps/amd/gaussian/g16-A.03/g16/l103.exe)

 GradGradGradGradGradGradGradGradGradGradGradGradGradGradGradGradGradGrad
 Berny optimization.
 Initialization pass.
                           ----------------------------
                           !    Initial Parameters    !
                           ! (Angstroms and Degrees)  !
 --------------------------                            --------------------------
 ! Name  Definition              Value          Derivative Info.                !
 --------------------------------------------------------------------------------
 ! R1    R(1,2)                  0.9803         estimate D2E/DX2                !
 ! R2    R(1,3)                  0.9917         estimate D2E/DX2                !
 ! A1    A(2,1,3)              108.251          estimate D2E/DX2                !
 --------------------------------------------------------------------------------
 Trust Radius=3.00D-01 FncErr=1.00D-07 GrdErr=1.00D-06 EigMax=2.50D+02 EigMin=1.00D-04
 Number of steps in this run=     20 maximum allowed number of steps=    100.
 GradGradGradGradGradGradGradGradGradGradGradGradGradGradGradGradGradGrad

 Leave Link  103 at Mon Aug 29 15:02:00 2022, MaxMem=  6442450944 cpu:               0.1 elap:               0.0
 (Enter /mnt/gpfs3_amd/share/apps/amd/gaussian/g16-A.03/g16/l202.exe)
                          Input orientation:                          
 ---------------------------------------------------------------------
 Center     Atomic      Atomic             Coordinates (Angstroms)
 Number     Number       Type             X           Y           Z
 ---------------------------------------------------------------------
      1          8           0       -0.005703    0.385159    0.000000
      2          1           0       -0.796078   -0.194675    0.000000
      3          1           0        0.801781   -0.190484    0.000000
 ---------------------------------------------------------------------
                    Distance matrix (angstroms):
                    1          2          3
     1  O    0.000000
     2  H    0.980255   0.000000
     3  H    0.991663   1.597864   0.000000
 Stoichiometry    H2O(1-,2)
 Framework group  CS[SG(H2O)]
 Deg. of freedom     3
 Full point group                 CS      NOp   2
 Largest Abelian subgroup         CS      NOp   2
 Largest concise Abelian subgroup C1      NOp   1
                         Standard orientation:                         
 ---------------------------------------------------------------------
 Center     Atomic      Atomic             Coordinates (Angstroms)
 Number     Number       Type             X           Y           Z
 ---------------------------------------------------------------------
      1          8           0        0.000000    0.115560    0.000000
      2          1           0        0.798873   -0.452508   -0.000000
      3          1           0       -0.798873   -0.471975   -0.000000
 ---------------------------------------------------------------------
 Rotational constants (GHZ):         845.8824126         392.7591064         268.2196708
 Leave Link  202 at Mon Aug 29 15:02:00 2022, MaxMem=  6442450944 cpu:               0.0 elap:               0.0
 (Enter /mnt/gpfs3_amd/share/apps/amd/gaussian/g16-A.03/g16/l301.exe)
 Standard basis: def2SVP (5D, 7F)
 Ernie: Thresh=  0.10000D-02 Tol=  0.10000D-05 Strict=F.
 There are    19 symmetry adapted cartesian basis functions of A'  symmetry.
 There are     6 symmetry adapted cartesian basis functions of A"  symmetry.
 There are    18 symmetry adapted basis functions of A'  symmetry.
 There are     6 symmetry adapted basis functions of A"  symmetry.
    24 basis functions,    39 primitive gaussians,    25 cartesian basis functions
     6 alpha electrons        5 beta electrons
       nuclear repulsion energy         8.9188763696 Hartrees.
 IExCor=33909 DFT=T Ex+Corr=LC-wHPBE ExCW=0 ScaHFX=  1.000000
 ScaDFX=  1.000000  1.000000  1.000000  1.000000 ScalE2=  1.000000  1.000000
 IRadAn=      5 IRanWt=     -1 IRanGd=            0 ICorTp=0 IEmpDi=  4
 HFx  wShort=  0.000000 wLong=  0.499400 cFull=  0.000000 cShort=  0.000000 cLong=  1.000000
 DFx  wShort=  0.000000 wLong=  0.499400 cFull=  0.000000 cShort=  1.000000 cLong=  0.000000
 NAtoms=    3 NActive=    3 NUniq=    3 SFac= 1.00D+00 NAtFMM=   60 NAOKFM=F Big=F
 Integral buffers will be    131072 words long.
 Raffenetti 2 integral format.
 Two-electron integral symmetry is turned on.
 Leave Link  301 at Mon Aug 29 15:02:00 2022, MaxMem=  6442450944 cpu:               0.3 elap:               0.0
 (Enter /mnt/gpfs3_amd/share/apps/amd/gaussian/g16-A.03/g16/l302.exe)
 NPDir=0 NMtPBC=     1 NCelOv=     1 NCel=       1 NClECP=     1 NCelD=      1
         NCelK=      1 NCelE2=     1 NClLst=     1 CellRange=     0.0.
 One-electron integrals computed using PRISM.
 One-electron integral symmetry used in STVInt
   2 Symmetry operations used in ECPInt.
 ECPInt:  NShTT=      78 NPrTT=     272 LenC2=      79 LenP2D=     271.
 LDataN:  DoStor=T MaxTD1= 4 Len=   56
 NBasis=    24 RedAO= T EigKep=  4.07D-02  NBF=    18     6
 NBsUse=    24 1.00D-06 EigRej= -1.00D+00 NBFU=    18     6
 Precomputing XC quadrature grid using
 IXCGrd= 4 IRadAn=           5 IRanWt=          -1 IRanGd=           0 AccXCQ= 0.00D+00.
 Generated NRdTot=       0 NPtTot=           0 NUsed=           0 NTot=          32
 NSgBfM=    25    25    25    25    25 MxSgAt=     3 MxSgA2=     3.
 Leave Link  302 at Mon Aug 29 15:02:00 2022, MaxMem=  6442450944 cpu:               1.9 elap:               0.1
 (Enter /mnt/gpfs3_amd/share/apps/amd/gaussian/g16-A.03/g16/l303.exe)
 DipDrv:  MaxL=1.
 Leave Link  303 at Mon Aug 29 15:02:00 2022, MaxMem=  6442450944 cpu:               0.1 elap:               0.0
 (Enter /mnt/gpfs3_amd/share/apps/amd/gaussian/g16-A.03/g16/l401.exe)
 ExpMin= 1.22D-01 ExpMax= 2.27D+03 ExpMxC= 3.41D+02 IAcc=3 IRadAn=         5 AccDes= 0.00D+00
 Harris functional with IExCor=33909 and IRadAn=       5 diagonalized for initial guess.
 HarFok:  IExCor=33909 AccDes= 0.00D+00 IRadAn=         5 IDoV= 1 UseB2=F ITyADJ=14
 ICtDFT=  3500011 ScaDFX=  1.000000  1.000000  1.000000  1.000000
 FoFCou: FMM=F IPFlag=           0 FMFlag=      100000 FMFlg1=           0
         NFxFlg=           0 DoJE=T BraDBF=F KetDBF=T FulRan=T
         wScrn=  0.000000 ICntrl=       500 IOpCl=  0 I1Cent=   200000004 NGrid=           0
         NMat0=    1 NMatS0=      1 NMatT0=    0 NMatD0=    1 NMtDS0=    0 NMtDT0=    0
 Petite list used in FoFCou.
 Harris En= -73.7766272611771    
 JPrj=0 DoOrth=F DoCkMO=F.
 Initial guess orbital symmetries:
 Alpha Orbitals:
       Occupied  (A') (A') (A') (A') (A") (A')
       Virtual   (A') (A') (A') (A') (A") (A') (A') (A") (A') (A")
                 (A') (A') (A') (A") (A") (A') (A') (A')
 Beta  Orbitals:
       Occupied  (A') (A') (A') (A') (A")
       Virtual   (A') (A') (A') (A') (A') (A") (A') (A') (A") (A')
                 (A") (A') (A') (A') (A") (A") (A') (A') (A')
 The electronic state of the initial guess is 2-A'.
 Initial guess <Sx>= 0.0000 <Sy>= 0.0000 <Sz>= 0.5000 <S**2>= 0.7500 S= 0.5000
 Leave Link  401 at Mon Aug 29 15:02:00 2022, MaxMem=  6442450944 cpu:               2.1 elap:               0.1
 (Enter /mnt/gpfs3_amd/share/apps/amd/gaussian/g16-A.03/g16/l502.exe)
 Keep R1 and R2 ints in memory in symmetry-blocked form, NReq=13884302.
 FoFCou: FMM=F IPFlag=           0 FMFlag=           0 FMFlg1=           0
         NFxFlg=           0 DoJE=F BraDBF=F KetDBF=F FulRan=T
         wScrn=  0.000000 ICntrl=       600 IOpCl=  0 I1Cent=           0 NGrid=           0
         NMat0=    1 NMatS0=    300 NMatT0=    0 NMatD0=    1 NMtDS0=    0 NMtDT0=    0
 Petite list used in FoFCou.
 UHF open shell SCF:
 Using DIIS extrapolation, IDIIS=  1040.
 NGot=  6442450944 LenX=  6442399050 LenY=  6442397984
 Requested convergence on RMS density matrix=1.00D-08 within 512 cycles.
 Requested convergence on MAX density matrix=1.00D-06.
 Requested convergence on             energy=1.00D-06.
 No special actions if energy rises.
 Integral accuracy reduced to 1.0D-05 until final iterations.

 Cycle   1  Pass 0  IDiag  1:
 E= -76.1395348620095    
 DIIS: error= 3.89D-02 at cycle   1 NSaved=   1.
 NSaved= 1 IEnMin= 1 EnMin= -76.1395348620095     IErMin= 1 ErrMin= 3.89D-02
 ErrMax= 3.89D-02  0.00D+00 EMaxC= 1.00D-01 BMatC= 2.07D-01 BMatP= 2.07D-01
 IDIUse=3 WtCom= 6.11D-01 WtEn= 3.89D-01
 Coeff-Com:  0.100D+01
 Coeff-En:   0.100D+01
 Coeff:      0.100D+01
 Gap=     0.296 Goal=   None    Shift=    0.000
 Gap=     0.450 Goal=   None    Shift=    0.000
 GapD=    0.296 DampG=1.000 DampE=0.500 DampFc=0.5000 IDamp=-1.
 Damping current iteration by 5.00D-01
 RMSDP=1.88D-02 MaxDP=3.12D-01              OVMax= 1.31D-01

 Cycle   2  Pass 0  IDiag  1:
 E= -76.1602894839100     Delta-E=       -0.020754621900 Rises=F Damp=T
 DIIS: error= 7.07D-03 at cycle   2 NSaved=   2.
 NSaved= 2 IEnMin= 2 EnMin= -76.1602894839100     IErMin= 2 ErrMin= 7.07D-03
 ErrMax= 7.07D-03  0.00D+00 EMaxC= 1.00D-01 BMatC= 3.03D-03 BMatP= 2.07D-01
 IDIUse=3 WtCom= 9.29D-01 WtEn= 7.07D-02
 Coeff-Com: -0.359D-01 0.104D+01
 Coeff-En:   0.000D+00 0.100D+01
 Coeff:     -0.334D-01 0.103D+01
 Gap=     0.290 Goal=   None    Shift=    0.000
 Gap=     0.545 Goal=   None    Shift=    0.000
 RMSDP=2.88D-03 MaxDP=4.48D-02 DE=-2.08D-02 OVMax= 4.54D-02

 Cycle   3  Pass 0  IDiag  1:
 E= -76.1799216944272     Delta-E=       -0.019632210517 Rises=F Damp=F
 DIIS: error= 1.70D-03 at cycle   3 NSaved=   3.
 NSaved= 3 IEnMin= 3 EnMin= -76.1799216944272     IErMin= 3 ErrMin= 1.70D-03
 ErrMax= 1.70D-03  0.00D+00 EMaxC= 1.00D-01 BMatC= 2.26D-04 BMatP= 3.03D-03
 IDIUse=3 WtCom= 9.83D-01 WtEn= 1.70D-02
 Coeff-Com:  0.286D-01-0.240D+00 0.121D+01
 Coeff-En:   0.000D+00 0.000D+00 0.100D+01
 Coeff:      0.282D-01-0.236D+00 0.121D+01
 Gap=     0.289 Goal=   None    Shift=    0.000
 Gap=     0.552 Goal=   None    Shift=    0.000
 RMSDP=6.94D-04 MaxDP=8.73D-03 DE=-1.96D-02 OVMax= 7.51D-03

 Cycle   4  Pass 0  IDiag  1:
 E= -76.1800253955405     Delta-E=       -0.000103701113 Rises=F Damp=F
 DIIS: error= 3.97D-04 at cycle   4 NSaved=   4.
 NSaved= 4 IEnMin= 4 EnMin= -76.1800253955405     IErMin= 4 ErrMin= 3.97D-04
 ErrMax= 3.97D-04  0.00D+00 EMaxC= 1.00D-01 BMatC= 8.34D-06 BMatP= 2.26D-04
 IDIUse=3 WtCom= 9.96D-01 WtEn= 3.97D-03
 Coeff-Com: -0.504D-02 0.334D-01-0.313D+00 0.128D+01
 Coeff-En:   0.000D+00 0.000D+00 0.000D+00 0.100D+01
 Coeff:     -0.502D-02 0.333D-01-0.311D+00 0.128D+01
 Gap=     0.290 Goal=   None    Shift=    0.000
 Gap=     0.553 Goal=   None    Shift=    0.000
 RMSDP=2.11D-04 MaxDP=3.26D-03 DE=-1.04D-04 OVMax= 2.40D-03

 Cycle   5  Pass 0  IDiag  1:
 E= -76.1800320515234     Delta-E=       -0.000006655983 Rises=F Damp=F
 DIIS: error= 1.18D-04 at cycle   5 NSaved=   5.
 NSaved= 5 IEnMin= 5 EnMin= -76.1800320515234     IErMin= 5 ErrMin= 1.18D-04
 ErrMax= 1.18D-04  0.00D+00 EMaxC= 1.00D-01 BMatC= 6.17D-07 BMatP= 8.34D-06
 IDIUse=3 WtCom= 9.99D-01 WtEn= 1.18D-03
 Coeff-Com:  0.166D-02-0.118D-01 0.136D+00-0.679D+00 0.155D+01
 Coeff-En:   0.000D+00 0.000D+00 0.000D+00 0.000D+00 0.100D+01
 Coeff:      0.166D-02-0.118D-01 0.135D+00-0.678D+00 0.155D+01
 Gap=     0.290 Goal=   None    Shift=    0.000
 Gap=     0.553 Goal=   None    Shift=    0.000
 RMSDP=1.44D-04 MaxDP=2.26D-03 DE=-6.66D-06 OVMax= 9.95D-04

 Cycle   6  Pass 0  IDiag  1:
 E= -76.1800328573574     Delta-E=       -0.000000805834 Rises=F Damp=F
 DIIS: error= 2.58D-05 at cycle   6 NSaved=   6.
 NSaved= 6 IEnMin= 6 EnMin= -76.1800328573574     IErMin= 6 ErrMin= 2.58D-05
 ErrMax= 2.58D-05  0.00D+00 EMaxC= 1.00D-01 BMatC= 8.84D-08 BMatP= 6.17D-07
 IDIUse=1 WtCom= 1.00D+00 WtEn= 0.00D+00
 Coeff-Com: -0.240D-03 0.258D-02-0.349D-01 0.198D+00-0.674D+00 0.151D+01
 Coeff:     -0.240D-03 0.258D-02-0.349D-01 0.198D+00-0.674D+00 0.151D+01
 Gap=     0.290 Goal=   None    Shift=    0.000
 Gap=     0.553 Goal=   None    Shift=    0.000
 RMSDP=1.01D-04 MaxDP=1.66D-03 DE=-8.06D-07 OVMax= 7.26D-04

 Cycle   7  Pass 0  IDiag  1:
 E= -76.1800330672682     Delta-E=       -0.000000209911 Rises=F Damp=F
 DIIS: error= 2.02D-05 at cycle   7 NSaved=   7.
 NSaved= 7 IEnMin= 7 EnMin= -76.1800330672682     IErMin= 7 ErrMin= 2.02D-05
 ErrMax= 2.02D-05  0.00D+00 EMaxC= 1.00D-01 BMatC= 2.83D-08 BMatP= 8.84D-08
 IDIUse=1 WtCom= 1.00D+00 WtEn= 0.00D+00
 Coeff-Com:  0.362D-04-0.114D-02 0.157D-01-0.878D-01 0.339D+00-0.111D+01
 Coeff-Com:  0.184D+01
 Coeff:      0.362D-04-0.114D-02 0.157D-01-0.878D-01 0.339D+00-0.111D+01
 Coeff:      0.184D+01
 Gap=     0.290 Goal=   None    Shift=    0.000
 Gap=     0.553 Goal=   None    Shift=    0.000
 RMSDP=9.37D-05 MaxDP=1.55D-03 DE=-2.10D-07 OVMax= 6.76D-04

 Cycle   8  Pass 0  IDiag  1:
 E= -76.1800331863017     Delta-E=       -0.000000119034 Rises=F Damp=F
 DIIS: error= 1.21D-05 at cycle   8 NSaved=   8.
 NSaved= 8 IEnMin= 8 EnMin= -76.1800331863017     IErMin= 8 ErrMin= 1.21D-05
 ErrMax= 1.21D-05  0.00D+00 EMaxC= 1.00D-01 BMatC= 1.44D-08 BMatP= 2.83D-08
 IDIUse=1 WtCom= 1.00D+00 WtEn= 0.00D+00
 Coeff-Com:  0.228D-03-0.209D-02 0.270D-01-0.149D+00 0.452D+00-0.826D+00
 Coeff-Com: -0.261D+00 0.176D+01
 Coeff:      0.228D-03-0.209D-02 0.270D-01-0.149D+00 0.452D+00-0.826D+00
 Coeff:     -0.261D+00 0.176D+01
 Gap=     0.290 Goal=   None    Shift=    0.000
 Gap=     0.553 Goal=   None    Shift=    0.000
 RMSDP=1.05D-04 MaxDP=1.74D-03 DE=-1.19D-07 OVMax= 7.57D-04

 Cycle   9  Pass 0  IDiag  1:
 E= -76.1800332608089     Delta-E=       -0.000000074507 Rises=F Damp=F
 DIIS: error= 5.33D-06 at cycle   9 NSaved=   9.
 NSaved= 9 IEnMin= 9 EnMin= -76.1800332608089     IErMin= 9 ErrMin= 5.33D-06
 ErrMax= 5.33D-06  0.00D+00 EMaxC= 1.00D-01 BMatC= 2.66D-09 BMatP= 1.44D-08
 IDIUse=1 WtCom= 1.00D+00 WtEn= 0.00D+00
 Coeff-Com: -0.895D-04 0.116D-02-0.157D-01 0.865D-01-0.283D+00 0.639D+00
 Coeff-Com: -0.113D+00-0.141D+01 0.209D+01
 Coeff:     -0.895D-04 0.116D-02-0.157D-01 0.865D-01-0.283D+00 0.639D+00
 Coeff:     -0.113D+00-0.141D+01 0.209D+01
 Gap=     0.290 Goal=   None    Shift=    0.000
 Gap=     0.553 Goal=   None    Shift=    0.000
 RMSDP=6.40D-05 MaxDP=1.05D-03 DE=-7.45D-08 OVMax= 4.60D-04

 Cycle  10  Pass 0  IDiag  1:
 E= -76.1800332758342     Delta-E=       -0.000000015025 Rises=F Damp=F
 DIIS: error= 1.27D-06 at cycle  10 NSaved=  10.
 NSaved=10 IEnMin=10 EnMin= -76.1800332758342     IErMin=10 ErrMin= 1.27D-06
 ErrMax= 1.27D-06  0.00D+00 EMaxC= 1.00D-01 BMatC= 9.57D-11 BMatP= 2.66D-09
 IDIUse=1 WtCom= 1.00D+00 WtEn= 0.00D+00
 Coeff-Com: -0.402D-05-0.470D-04 0.408D-03-0.180D-02 0.726D-02-0.325D-01
 Coeff-Com:  0.532D-01 0.203D-01-0.256D+00 0.121D+01
 Coeff:     -0.402D-05-0.470D-04 0.408D-03-0.180D-02 0.726D-02-0.325D-01
 Coeff:      0.532D-01 0.203D-01-0.256D+00 0.121D+01
 Gap=     0.290 Goal=   None    Shift=    0.000
 Gap=     0.553 Goal=   None    Shift=    0.000
 RMSDP=8.05D-06 MaxDP=1.33D-04 DE=-1.50D-08 OVMax= 5.77D-05

 Initial convergence to 1.0D-05 achieved.  Increase integral accuracy.
 Cycle  11  Pass 1  IDiag  1:
 E= -76.1800315388690     Delta-E=        0.000001736965 Rises=F Damp=F
 DIIS: error= 4.57D-07 at cycle   1 NSaved=   1.
 NSaved= 1 IEnMin= 1 EnMin= -76.1800315388690     IErMin= 1 ErrMin= 4.57D-07
 ErrMax= 4.57D-07  0.00D+00 EMaxC= 1.00D-01 BMatC= 1.64D-11 BMatP= 1.64D-11
 IDIUse=1 WtCom= 1.00D+00 WtEn= 0.00D+00
 Coeff-Com:  0.100D+01
 Coeff:      0.100D+01
 Gap=     0.290 Goal=   None    Shift=    0.000
 Gap=     0.553 Goal=   None    Shift=    0.000
 RMSDP=8.05D-06 MaxDP=1.33D-04 DE= 1.74D-06 OVMax= 2.29D-06

 Cycle  12  Pass 1  IDiag  1:
 E= -76.1800315388747     Delta-E=       -0.000000000006 Rises=F Damp=F
 DIIS: error= 2.90D-07 at cycle   2 NSaved=   2.
 NSaved= 2 IEnMin= 2 EnMin= -76.1800315388747     IErMin= 2 ErrMin= 2.90D-07
 ErrMax= 2.90D-07  0.00D+00 EMaxC= 1.00D-01 BMatC= 6.43D-12 BMatP= 1.64D-11
 IDIUse=1 WtCom= 1.00D+00 WtEn= 0.00D+00
 Coeff-Com:  0.331D+00 0.669D+00
 Coeff:      0.331D+00 0.669D+00
 Gap=     0.290 Goal=   None    Shift=    0.000
 Gap=     0.553 Goal=   None    Shift=    0.000
 RMSDP=7.17D-08 MaxDP=1.09D-06 DE=-5.76D-12 OVMax= 5.62D-07

 Cycle  13  Pass 1  IDiag  1:
 E= -76.1800315388764     Delta-E=       -0.000000000002 Rises=F Damp=F
 DIIS: error= 1.51D-07 at cycle   3 NSaved=   3.
 NSaved= 3 IEnMin= 3 EnMin= -76.1800315388764     IErMin= 3 ErrMin= 1.51D-07
 ErrMax= 1.51D-07  0.00D+00 EMaxC= 1.00D-01 BMatC= 7.95D-13 BMatP= 6.43D-12
 IDIUse=1 WtCom= 1.00D+00 WtEn= 0.00D+00
 Coeff-Com: -0.169D+00 0.691D-01 0.110D+01
 Coeff:     -0.169D+00 0.691D-01 0.110D+01
 Gap=     0.290 Goal=   None    Shift=    0.000
 Gap=     0.553 Goal=   None    Shift=    0.000
 RMSDP=6.00D-08 MaxDP=6.98D-07 DE=-1.68D-12 OVMax= 8.48D-07

 Cycle  14  Pass 1  IDiag  1:
 E= -76.1800315388770     Delta-E=       -0.000000000001 Rises=F Damp=F
 DIIS: error= 4.46D-08 at cycle   4 NSaved=   4.
 NSaved= 4 IEnMin= 4 EnMin= -76.1800315388770     IErMin= 4 ErrMin= 4.46D-08
 ErrMax= 4.46D-08  0.00D+00 EMaxC= 1.00D-01 BMatC= 7.59D-14 BMatP= 7.95D-13
 IDIUse=1 WtCom= 1.00D+00 WtEn= 0.00D+00
 Coeff-Com:  0.451D-01-0.111D+00-0.414D+00 0.148D+01
 Coeff:      0.451D-01-0.111D+00-0.414D+00 0.148D+01
 Gap=     0.290 Goal=   None    Shift=    0.000
 Gap=     0.553 Goal=   None    Shift=    0.000
 RMSDP=4.43D-08 MaxDP=6.99D-07 DE=-5.68D-13 OVMax= 3.66D-07

 Cycle  15  Pass 1  IDiag  1:
 E= -76.1800315388771     Delta-E=       -0.000000000000 Rises=F Damp=F
 DIIS: error= 8.02D-09 at cycle   5 NSaved=   5.
 NSaved= 5 IEnMin= 5 EnMin= -76.1800315388771     IErMin= 5 ErrMin= 8.02D-09
 ErrMax= 8.02D-09  0.00D+00 EMaxC= 1.00D-01 BMatC= 9.49D-15 BMatP= 7.59D-14
 IDIUse=1 WtCom= 1.00D+00 WtEn= 0.00D+00
 Coeff-Com:  0.135D-01-0.172D-02-0.696D-01-0.656D-01 0.112D+01
 Coeff:      0.135D-01-0.172D-02-0.696D-01-0.656D-01 0.112D+01
 Gap=     0.290 Goal=   None    Shift=    0.000
 Gap=     0.553 Goal=   None    Shift=    0.000
 RMSDP=2.23D-08 MaxDP=3.65D-07 DE=-1.28D-13 OVMax= 1.58D-07

 Cycle  16  Pass 1  IDiag  1:
 E= -76.1800315388771     Delta-E=       -0.000000000000 Rises=F Damp=F
 DIIS: error= 6.35D-09 at cycle   6 NSaved=   6.
 NSaved= 6 IEnMin= 6 EnMin= -76.1800315388771     IErMin= 6 ErrMin= 6.35D-09
 ErrMax= 6.35D-09  0.00D+00 EMaxC= 1.00D-01 BMatC= 3.01D-15 BMatP= 9.49D-15
 IDIUse=1 WtCom= 1.00D+00 WtEn= 0.00D+00
 Coeff-Com: -0.684D-02 0.118D-01 0.560D-01-0.956D-01-0.627D+00 0.166D+01
 Coeff:     -0.684D-02 0.118D-01 0.560D-01-0.956D-01-0.627D+00 0.166D+01
 Gap=     0.290 Goal=   None    Shift=    0.000
 Gap=     0.553 Goal=   None    Shift=    0.000
 RMSDP=2.58D-08 MaxDP=4.24D-07 DE=-1.42D-14 OVMax= 1.85D-07

 Cycle  17  Pass 1  IDiag  1:
 E= -76.1800315388771     Delta-E=        0.000000000000 Rises=F Damp=F
 DIIS: error= 4.03D-09 at cycle   7 NSaved=   7.
 NSaved= 7 IEnMin= 6 EnMin= -76.1800315388771     IErMin= 7 ErrMin= 4.03D-09
 ErrMax= 4.03D-09  0.00D+00 EMaxC= 1.00D-01 BMatC= 1.49D-15 BMatP= 3.01D-15
 IDIUse=1 WtCom= 1.00D+00 WtEn= 0.00D+00
 Coeff-Com:  0.899D-02-0.268D-01-0.955D-01 0.357D+00-0.181D+00-0.134D+01
 Coeff-Com:  0.228D+01
 Coeff:      0.899D-02-0.268D-01-0.955D-01 0.357D+00-0.181D+00-0.134D+01
 Coeff:      0.228D+01
 Gap=     0.290 Goal=   None    Shift=    0.000
 Gap=     0.553 Goal=   None    Shift=    0.000
 RMSDP=3.14D-08 MaxDP=5.16D-07 DE= 2.84D-14 OVMax= 2.26D-07

 Cycle  18  Pass 1  IDiag  1:
 E= -76.1800315388771     Delta-E=       -0.000000000000 Rises=F Damp=F
 DIIS: error= 1.96D-09 at cycle   8 NSaved=   8.
 NSaved= 8 IEnMin= 6 EnMin= -76.1800315388771     IErMin= 8 ErrMin= 1.96D-09
 ErrMax= 1.96D-09  0.00D+00 EMaxC= 1.00D-01 BMatC= 3.36D-16 BMatP= 1.49D-15
 IDIUse=1 WtCom= 1.00D+00 WtEn= 0.00D+00
 Coeff-Com:  0.168D-03 0.241D-02 0.399D-02-0.421D-01 0.960D-01 0.237D+00
 Coeff-Com: -0.116D+01 0.187D+01
 Coeff:      0.168D-03 0.241D-02 0.399D-02-0.421D-01 0.960D-01 0.237D+00
 Coeff:     -0.116D+01 0.187D+01
 Gap=     0.290 Goal=   None    Shift=    0.000
 Gap=     0.553 Goal=   None    Shift=    0.000
 RMSDP=2.07D-08 MaxDP=3.40D-07 DE=-1.42D-14 OVMax= 1.49D-07

 Cycle  19  Pass 1  IDiag  1:
 E= -76.1800315388771     Delta-E=        0.000000000000 Rises=F Damp=F
 DIIS: error= 5.55D-10 at cycle   9 NSaved=   9.
 NSaved= 9 IEnMin= 6 EnMin= -76.1800315388771     IErMin= 9 ErrMin= 5.55D-10
 ErrMax= 5.55D-10  0.00D+00 EMaxC= 1.00D-01 BMatC= 3.26D-17 BMatP= 3.36D-16
 IDIUse=1 WtCom= 1.00D+00 WtEn= 0.00D+00
 Coeff-Com: -0.146D-02 0.396D-02 0.156D-01-0.500D-01-0.141D-01 0.266D+00
 Coeff-Com: -0.325D+00-0.217D+00 0.132D+01
 Coeff:     -0.146D-02 0.396D-02 0.156D-01-0.500D-01-0.141D-01 0.266D+00
 Coeff:     -0.325D+00-0.217D+00 0.132D+01
 Gap=     0.290 Goal=   None    Shift=    0.000
 Gap=     0.553 Goal=   None    Shift=    0.000
 RMSDP=6.04D-09 MaxDP=9.98D-08 DE= 4.26D-14 OVMax= 4.34D-08

 SCF Done:  E(ULC-wHPBE) =  -76.1800315389     A.U. after   19 cycles
            NFock= 19  Conv=0.60D-08     -V/T= 2.0013
 <Sx>= 0.0000 <Sy>= 0.0000 <Sz>= 0.5000 <S**2>= 0.7532 S= 0.5016
 <L.S>= 0.000000000000E+00
 KE= 7.607854929081D+01 PE=-2.016978243290D+02 EE= 4.052036712972D+01
 Annihilation of the first spin contaminant:
 S**2 before annihilation     0.7532,   after     0.7500
 Leave Link  502 at Mon Aug 29 15:02:01 2022, MaxMem=  6442450944 cpu:               9.6 elap:               0.7
 (Enter /mnt/gpfs3_amd/share/apps/amd/gaussian/g16-A.03/g16/l601.exe)
 Copying SCF densities to generalized density rwf, IOpCl= 1 IROHF=0.

 **********************************************************************

            Population analysis using the SCF density.

 **********************************************************************

 Orbital symmetries:
 Alpha Orbitals:
       Occupied  (A') (A') (A') (A') (A") (A')
       Virtual   (A') (A') (A') (A') (A") (A') (A') (A") (A') (A")
                 (A') (A') (A') (A") (A") (A') (A') (A')
 Beta  Orbitals:
       Occupied  (A') (A') (A') (A') (A")
       Virtual   (A') (A') (A') (A') (A') (A") (A') (A') (A") (A')
                 (A") (A') (A') (A') (A") (A") (A') (A') (A')
 The electronic state is 2-A'.
 Alpha  occ. eigenvalues --  -18.68434  -0.83002  -0.35030  -0.21286  -0.13577
 Alpha  occ. eigenvalues --    0.13959
 Alpha virt. eigenvalues --    0.42962   0.99261   1.01672   1.33937   1.35914
 Alpha virt. eigenvalues --    1.42271   1.51743   1.78842   1.90977   2.01926
 Alpha virt. eigenvalues --    2.19953   2.63157   2.67550   3.37263   3.45510
 Alpha virt. eigenvalues --    3.58586   3.96124   4.22444
  Beta  occ. eigenvalues --  -18.67919  -0.81357  -0.34116  -0.19932  -0.12908
  Beta virt. eigenvalues --    0.42371   0.49189   1.00270   1.04756   1.35353
  Beta virt. eigenvalues --    1.37319   1.43578   1.53111   1.79859   1.92029
  Beta virt. eigenvalues --    2.02908   2.21185   2.64740   2.69340   3.38618
  Beta virt. eigenvalues --    3.46008   3.60172   3.96779   4.23594
          Condensed to atoms (all electrons):
               1          2          3
     1  O    9.198816  -0.452105  -0.500012
     2  H   -0.452105   1.397000   0.416814
     3  H   -0.500012   0.416814   1.474791
          Atomic-Atomic Spin Densities.
               1          2          3
     1  O    1.517794  -0.783269  -0.830729
     2  H   -0.783269   0.859889   0.450713
     3  H   -0.830729   0.450713   0.948886
 Mulliken charges and spin densities:
               1          2
     1  O   -0.246699  -0.096204
     2  H   -0.361709   0.527333
     3  H   -0.391593   0.568871
 Sum of Mulliken charges =  -1.00000   1.00000
 Mulliken charges and spin densities with hydrogens summed into heavy atoms:
               1          2
     1  O   -1.000000   1.000000
 Electronic spatial extent (au):  <R**2>=             32.1091
 Charge=             -1.0000 electrons
 Dipole moment (field-independent basis, Debye):
    X=              0.1693    Y=              0.9172    Z=             -0.0000  Tot=              0.9327
 Quadrupole moment (field-independent basis, Debye-Ang):
   XX=            -11.9593   YY=            -11.8268   ZZ=            -10.7042
   XY=             -0.1353   XZ=              0.0000   YZ=             -0.0000
 Traceless Quadrupole moment (field-independent basis, Debye-Ang):
   XX=             -0.4625   YY=             -0.3300   ZZ=              0.7926
   XY=             -0.1353   XZ=              0.0000   YZ=             -0.0000
 Octapole moment (field-independent basis, Debye-Ang**2):
  XXX=              0.5311  YYY=              6.2727  ZZZ=             -0.0000  XYY=              0.2085
  XXY=              3.0032  XXZ=             -0.0000  XZZ=              0.1251  YZZ=              1.8037
  YYZ=              0.0000  XYZ=              0.0000
 Hexadecapole moment (field-independent basis, Debye-Ang**3):
 XXXX=            -32.2029 YYYY=            -22.0168 ZZZZ=            -12.4854 XXXY=             -0.4321
 XXXZ=              0.0000 YYYX=             -0.3764 YYYZ=              0.0000 ZZZX=              0.0000
 ZZZY=             -0.0000 XXYY=             -9.1521 XXZZ=             -7.2220 YYZZ=             -5.7060
 XXYZ=             -0.0000 YYXZ=              0.0000 ZZXY=             -0.1105
 N-N= 8.918876369637D+00 E-N=-2.016978243295D+02  KE= 7.607854929081D+01
 Symmetry A'   KE= 7.158778768796D+01
 Symmetry A"   KE= 4.490761602856D+00
 Symmetry A'   SP= 1.000000000000D+00
 Symmetry A"   SP=-1.690352502068D-15
                          Isotropic Fermi Contact Couplings
        Atom                 a.u.       MegaHertz       Gauss      10(-4) cm-1
     1  O(17)              1.11910    -678.39301    -242.06749    -226.28755
     2  H(1)               0.00247      11.04553       3.94132       3.68439
     3  H(1)               0.00335      14.98171       5.34585       4.99736
 --------------------------------------------------------
       Center         ----  Spin Dipole Couplings  ----
                      3XX-RR        3YY-RR        3ZZ-RR
 --------------------------------------------------------
     1   Atom       -0.385027      0.530852     -0.145825
     2   Atom        0.058694     -0.025290     -0.033404
     3   Atom        0.056109     -0.022398     -0.033711
 --------------------------------------------------------
                        XY            XZ            YZ
 --------------------------------------------------------
     1   Atom        0.016695      0.000000      0.000000
     2   Atom       -0.023787      0.000000      0.000000
     3   Atom        0.027673      0.000000      0.000000
 --------------------------------------------------------


 ---------------------------------------------------------------------------------
              Anisotropic Spin Dipole Couplings in Principal Axis System
 ---------------------------------------------------------------------------------

       Atom             a.u.   MegaHertz   Gauss  10(-4) cm-1        Axes

              Baa    -0.3853    27.882     9.949     9.301  0.9998 -0.0182 -0.0000
     1 O(17)  Bbb    -0.1458    10.552     3.765     3.520  0.0000  0.0000  1.0000
              Bcc     0.5312   -38.434   -13.714   -12.820  0.0182  0.9998  0.0000
 
              Baa    -0.0334   -17.823    -6.360    -5.945  0.0000  0.0000  1.0000
     2 H(1)   Bbb    -0.0316   -16.838    -6.008    -5.617  0.2549  0.9670  0.0000
              Bcc     0.0650    34.661    12.368    11.562  0.9670 -0.2549 -0.0000
 
              Baa    -0.0337   -17.987    -6.418    -6.000  0.0000  0.0000  1.0000
     3 H(1)   Bbb    -0.0312   -16.632    -5.935    -5.548 -0.3022  0.9532 -0.0000
              Bcc     0.0649    34.619    12.353    11.548  0.9532  0.3022  0.0000
 

 ---------------------------------------------------------------------------------

 No NMR shielding tensors so no spin-rotation constants.
 Leave Link  601 at Mon Aug 29 15:02:01 2022, MaxMem=  6442450944 cpu:               2.2 elap:               0.1
 (Enter /mnt/gpfs3_amd/share/apps/amd/gaussian/g16-A.03/g16/l701.exe)
 ... and contract with generalized density number  0.
 Compute integral first derivatives.
   2 Symmetry operations used in ECPInt.
 ECPInt:  NShTT=      78 NPrTT=     272 LenC2=      79 LenP2D=     271.
 LDataN:  DoStor=T MaxTD1= 5 Len=  102
 Leave Link  701 at Mon Aug 29 15:02:02 2022, MaxMem=  6442450944 cpu:               1.3 elap:               0.1
 (Enter /mnt/gpfs3_amd/share/apps/amd/gaussian/g16-A.03/g16/l702.exe)
 L702 exits ... SP integral derivatives will be done elsewhere.
 Leave Link  702 at Mon Aug 29 15:02:02 2022, MaxMem=  6442450944 cpu:               0.1 elap:               0.0
 (Enter /mnt/gpfs3_amd/share/apps/amd/gaussian/g16-A.03/g16/l703.exe)
 Integral derivatives from FoFJK, PRISM(SPDF).
 Compute integral first derivatives, UseDBF=F ICtDFT=           0.
 Calling FoFJK, ICntrl=      2127 FMM=F ISym2X=1 I1Cent= 0 IOpClX= 1 NMat=1 NMatS=1 NMatT=0.
 FoFJK:  IHMeth= 1 ICntrl=    2127 DoSepK=T KAlg= 0 I1Cent=           0 FoldK=F
 IRaf=         1 NMat=       1 IRICut=       1 DoRegI=T DoRafI=F ISym2E= 1 IDoP0=0 IntGTp=1.
 FoFCou: FMM=F IPFlag=           0 FMFlag=      100000 FMFlg1=         800
         NFxFlg=           0 DoJE=F BraDBF=F KetDBF=F FulRan=T
         wScrn=  0.000000 ICntrl=      2527 IOpCl=  0 I1Cent=           0 NGrid=           0
         NMat0=    1 NMatS0=      1 NMatT0=    0 NMatD0=    1 NMtDS0=    0 NMtDT0=    0
 Petite list used in FoFCou.
 Leave Link  703 at Mon Aug 29 15:02:02 2022, MaxMem=  6442450944 cpu:               5.4 elap:               0.4
 (Enter /mnt/gpfs3_amd/share/apps/amd/gaussian/g16-A.03/g16/l716.exe)
 Dipole        = 6.66196573D-02 3.60848234D-01-1.51827342D-35
 ***** Axes restored to original set *****
 -------------------------------------------------------------------
 Center     Atomic                   Forces (Hartrees/Bohr)
 Number     Number              X              Y              Z
 -------------------------------------------------------------------
      1        8           0.003302908    0.049987560   -0.000000000
      2        1          -0.015380395   -0.026491637    0.000000000
      3        1           0.012077488   -0.023495923   -0.000000000
 -------------------------------------------------------------------
 Cartesian Forces:  Max     0.049987560 RMS     0.021463025
 Leave Link  716 at Mon Aug 29 15:02:03 2022, MaxMem=  6442450944 cpu:               0.2 elap:               0.0
 (Enter /mnt/gpfs3_amd/share/apps/amd/gaussian/g16-A.03/g16/l103.exe)

 GradGradGradGradGradGradGradGradGradGradGradGradGradGradGradGradGradGrad
 Berny optimization.
 FormGI is forming the generalized inverse of G from B-inverse, IUseBI=4.
 Internal  Forces:  Max     0.028071298 RMS     0.024866083
 Search for a local minimum.
 Step number   1 out of a maximum of   20
 All quantities printed in internal units (Hartrees-Bohrs-Radians)
 RMS Force = .24866D-01 SwitMx=.10000D-02 MixMth= 1
 Mixed Optimization -- RFO/linear search
 Second derivative matrix not updated -- first step.
 The second derivative matrix:
                          R1        R2        A1
           R1           0.51335
           R2           0.00000   0.49185
           A1           0.00000   0.00000   0.16000
 ITU=  0
     Eigenvalues ---    0.16000   0.49185   0.51335
 RFO step:  Lambda=-5.73853568D-03 EMin= 1.60000000D-01
 Linear search not attempted -- first point.
 Iteration  1 RMS(Cart)=  0.06858208 RMS(Int)=  0.00411594
 Iteration  2 RMS(Cart)=  0.00458515 RMS(Int)=  0.00000568
 Iteration  3 RMS(Cart)=  0.00000439 RMS(Int)=  0.00000000
 Iteration  4 RMS(Cart)=  0.00000000 RMS(Int)=  0.00000000
 ITry= 1 IFail=0 DXMaxC= 8.88D-02 DCOld= 1.00D+10 DXMaxT= 3.00D-01 DXLimC= 3.00D+00 Rises=F
 ClnCor:  largest displacement from symmetrization is 2.29D-16 for atom     2.
 Variable       Old X    -DE/DX   Delta X   Delta X   Delta X     New X
                                 (Linear)    (Quad)   (Total)
    R1        1.85241   0.02807   0.00000   0.05408   0.05408   1.90649
    R2        1.87397   0.02347   0.00000   0.04717   0.04717   1.92115
    A1        1.88934  -0.02271   0.00000  -0.13705  -0.13705   1.75228
         Item               Value     Threshold  Converged?
 Maximum Force            0.028071     0.000450     NO 
 RMS     Force            0.024866     0.000300     NO 
 Maximum Displacement     0.088829     0.001800     NO 
 RMS     Displacement     0.070592     0.001200     NO 
 Predicted change in Energy=-2.937940D-03
 Lowest energy point so far.  Saving SCF results.
 GradGradGradGradGradGradGradGradGradGradGradGradGradGradGradGradGradGrad

 Leave Link  103 at Mon Aug 29 15:02:03 2022, MaxMem=  6442450944 cpu:               0.1 elap:               0.0
 (Enter /mnt/gpfs3_amd/share/apps/amd/gaussian/g16-A.03/g16/l202.exe)
                          Input orientation:                          
 ---------------------------------------------------------------------
 Center     Atomic      Atomic             Coordinates (Angstroms)
 Number     Number       Type             X           Y           Z
 ---------------------------------------------------------------------
      1          8           0       -0.004815    0.432165    0.000000
      2          1           0       -0.775662   -0.218695    0.000000
      3          1           0        0.780477   -0.213471   -0.000000
 ---------------------------------------------------------------------
                    Distance matrix (angstroms):
                    1          2          3
     1  O    0.000000
     2  H    1.008872   0.000000
     3  H    1.016627   1.556148   0.000000
 Stoichiometry    H2O(1-,2)
 Framework group  CS[SG(H2O)]
 Deg. of freedom     3
 Full point group                 CS      NOp   2
 RotChk:  IX=0 Diff= 5.18D-03
 Largest Abelian subgroup         CS      NOp   2
 Largest concise Abelian subgroup C1      NOp   1
                         Standard orientation:                         
 ---------------------------------------------------------------------
 Center     Atomic      Atomic             Coordinates (Angstroms)
 Number     Number       Type             X           Y           Z
 ---------------------------------------------------------------------
      1          8           0        0.000000    0.129658   -0.000000
      2          1           0        0.778050   -0.512573   -0.000000
      3          1           0       -0.778050   -0.524687    0.000000
 ---------------------------------------------------------------------
 Rotational constants (GHZ):         671.8624091         414.1123302         256.1997970
 Leave Link  202 at Mon Aug 29 15:02:03 2022, MaxMem=  6442450944 cpu:               0.0 elap:               0.0
 (Enter /mnt/gpfs3_amd/share/apps/amd/gaussian/g16-A.03/g16/l301.exe)
 Standard basis: def2SVP (5D, 7F)
 Ernie: Thresh=  0.10000D-02 Tol=  0.10000D-05 Strict=F.
 There are    19 symmetry adapted cartesian basis functions of A'  symmetry.
 There are     6 symmetry adapted cartesian basis functions of A"  symmetry.
 There are    18 symmetry adapted basis functions of A'  symmetry.
 There are     6 symmetry adapted basis functions of A"  symmetry.
    24 basis functions,    39 primitive gaussians,    25 cartesian basis functions
     6 alpha electrons        5 beta electrons
       nuclear repulsion energy         8.7004273610 Hartrees.
 IExCor=33909 DFT=T Ex+Corr=LC-wHPBE ExCW=0 ScaHFX=  1.000000
 ScaDFX=  1.000000  1.000000  1.000000  1.000000 ScalE2=  1.000000  1.000000
 IRadAn=      5 IRanWt=     -1 IRanGd=            0 ICorTp=0 IEmpDi=  4
 HFx  wShort=  0.000000 wLong=  0.499400 cFull=  0.000000 cShort=  0.000000 cLong=  1.000000
 DFx  wShort=  0.000000 wLong=  0.499400 cFull=  0.000000 cShort=  1.000000 cLong=  0.000000
 NAtoms=    3 NActive=    3 NUniq=    3 SFac= 1.00D+00 NAtFMM=   60 NAOKFM=F Big=F
 Integral buffers will be    131072 words long.
 Raffenetti 2 integral format.
 Two-electron integral symmetry is turned on.
 Leave Link  301 at Mon Aug 29 15:02:03 2022, MaxMem=  6442450944 cpu:               0.3 elap:               0.0
 (Enter /mnt/gpfs3_amd/share/apps/amd/gaussian/g16-A.03/g16/l302.exe)
 NPDir=0 NMtPBC=     1 NCelOv=     1 NCel=       1 NClECP=     1 NCelD=      1
         NCelK=      1 NCelE2=     1 NClLst=     1 CellRange=     0.0.
 One-electron integrals computed using PRISM.
 One-electron integral symmetry used in STVInt
   2 Symmetry operations used in ECPInt.
 ECPInt:  NShTT=      78 NPrTT=     272 LenC2=      79 LenP2D=     271.
 LDataN:  DoStor=T MaxTD1= 4 Len=   56
 NBasis=    24 RedAO= T EigKep=  4.09D-02  NBF=    18     6
 NBsUse=    24 1.00D-06 EigRej= -1.00D+00 NBFU=    18     6
 Precomputing XC quadrature grid using
 IXCGrd= 4 IRadAn=           5 IRanWt=          -1 IRanGd=           0 AccXCQ= 0.00D+00.
 Generated NRdTot=       0 NPtTot=           0 NUsed=           0 NTot=          32
 NSgBfM=    25    25    25    25    25 MxSgAt=     3 MxSgA2=     3.
 Leave Link  302 at Mon Aug 29 15:02:03 2022, MaxMem=  6442450944 cpu:               1.3 elap:               0.1
 (Enter /mnt/gpfs3_amd/share/apps/amd/gaussian/g16-A.03/g16/l303.exe)
 DipDrv:  MaxL=1.
 Leave Link  303 at Mon Aug 29 15:02:03 2022, MaxMem=  6442450944 cpu:               0.1 elap:               0.0
 (Enter /mnt/gpfs3_amd/share/apps/amd/gaussian/g16-A.03/g16/l401.exe)
 Initial guess from the checkpoint file:  "/scratch/rdu230/d3tales/high_throughput/runfiles//05XICU/gaussian/gas_phase/opt/opt_anion1.chk"
 B after Tr=     0.000000   -0.000000   -0.000000
         Rot=    0.999999   -0.000000    0.000000    0.001484 Ang=   0.17 deg.
 Guess basis will be translated and rotated to current coordinates.
 JPrj=2 DoOrth=T DoCkMO=T.
 Initial guess orbital symmetries:
 Alpha Orbitals:
       Occupied  (A') (A') (A') (A') (A") (A')
       Virtual   (A') (A') (A') (A') (A") (A') (A') (A") (A') (A")
                 (A') (A') (A') (A") (A") (A') (A') (A')
 Beta  Orbitals:
       Occupied  (A') (A') (A') (A') (A")
       Virtual   (A') (A') (A') (A') (A') (A") (A') (A') (A") (A')
                 (A") (A') (A') (A') (A") (A") (A') (A') (A')
 The electronic state of the initial guess is 2-A'.
 Initial guess <Sx>= 0.0000 <Sy>= 0.0000 <Sz>= 0.5000 <S**2>= 0.7532 S= 0.5016
 Generating alternative initial guess.
 ExpMin= 1.22D-01 ExpMax= 2.27D+03 ExpMxC= 3.41D+02 IAcc=2 IRadAn=         4 AccDes= 0.00D+00
 Harris functional with IExCor=33909 and IRadAn=       4 diagonalized for initial guess.
 HarFok:  IExCor=33909 AccDes= 0.00D+00 IRadAn=         4 IDoV= 1 UseB2=F ITyADJ=14
 ICtDFT=  3500011 ScaDFX=  1.000000  1.000000  1.000000  1.000000
 FoFCou: FMM=F IPFlag=           0 FMFlag=      100000 FMFlg1=           0
         NFxFlg=           0 DoJE=T BraDBF=F KetDBF=T FulRan=T
         wScrn=  0.000000 ICntrl=       500 IOpCl=  0 I1Cent=   200000004 NGrid=           0
         NMat0=    1 NMatS0=      1 NMatT0=    0 NMatD0=    1 NMtDS0=    0 NMtDT0=    0
 Petite list used in FoFCou.
 Harris En= -73.7795020034924    
 Leave Link  401 at Mon Aug 29 15:02:03 2022, MaxMem=  6442450944 cpu:               2.2 elap:               0.2
 (Enter /mnt/gpfs3_amd/share/apps/amd/gaussian/g16-A.03/g16/l502.exe)
 Keep R1 and R2 ints in memory in symmetry-blocked form, NReq=13884302.
 FoFCou: FMM=F IPFlag=           0 FMFlag=           0 FMFlg1=           0
         NFxFlg=           0 DoJE=F BraDBF=F KetDBF=F FulRan=T
         wScrn=  0.000000 ICntrl=       600 IOpCl=  0 I1Cent=           0 NGrid=           0
         NMat0=    1 NMatS0=    300 NMatT0=    0 NMatD0=    1 NMtDS0=    0 NMtDT0=    0
 Petite list used in FoFCou.
 UHF open shell SCF:
 Using DIIS extrapolation, IDIIS=  1040.
 NGot=  6442450944 LenX=  6442399050 LenY=  6442397984
 Requested convergence on RMS density matrix=1.00D-08 within 512 cycles.
 Requested convergence on MAX density matrix=1.00D-06.
 Requested convergence on             energy=1.00D-06.
 No special actions if energy rises.
 Integral accuracy reduced to 1.0D-05 until final iterations.

 Cycle   1  Pass 0  IDiag  1:
 E= -76.1823534454712    
 DIIS: error= 5.27D-03 at cycle   1 NSaved=   1.
 NSaved= 1 IEnMin= 1 EnMin= -76.1823534454712     IErMin= 1 ErrMin= 5.27D-03
 ErrMax= 5.27D-03  0.00D+00 EMaxC= 1.00D-01 BMatC= 4.81D-03 BMatP= 4.81D-03
 IDIUse=3 WtCom= 9.47D-01 WtEn= 5.27D-02
 Coeff-Com:  0.100D+01
 Coeff-En:   0.100D+01
 Coeff:      0.100D+01
 Gap=     0.300 Goal=   None    Shift=    0.000
 Gap=     0.549 Goal=   None    Shift=    0.000
 GapD=    0.300 DampG=1.000 DampE=1.000 DampFc=1.0000 IDamp=-1.
 RMSDP=2.18D-03 MaxDP=1.33D-02              OVMax= 1.59D-02

 Cycle   2  Pass 0  IDiag  1:
 E= -76.1837356653540     Delta-E=       -0.001382219883 Rises=F Damp=F
 DIIS: error= 1.60D-03 at cycle   2 NSaved=   2.
 NSaved= 2 IEnMin= 2 EnMin= -76.1837356653540     IErMin= 2 ErrMin= 1.60D-03
 ErrMax= 1.60D-03  0.00D+00 EMaxC= 1.00D-01 BMatC= 3.94D-04 BMatP= 4.81D-03
 IDIUse=3 WtCom= 9.84D-01 WtEn= 1.60D-02
 Coeff-Com: -0.794D-03 0.100D+01
 Coeff-En:   0.000D+00 0.100D+01
 Coeff:     -0.781D-03 0.100D+01
 Gap=     0.297 Goal=   None    Shift=    0.000
 Gap=     0.552 Goal=   None    Shift=    0.000
 RMSDP=9.45D-04 MaxDP=1.35D-02 DE=-1.38D-03 OVMax= 4.35D-03

 Cycle   3  Pass 0  IDiag  1:
 E= -76.1838165668539     Delta-E=       -0.000080901500 Rises=F Damp=F
 DIIS: error= 1.17D-03 at cycle   3 NSaved=   3.
 NSaved= 3 IEnMin= 3 EnMin= -76.1838165668539     IErMin= 3 ErrMin= 1.17D-03
 ErrMax= 1.17D-03  0.00D+00 EMaxC= 1.00D-01 BMatC= 1.63D-04 BMatP= 3.94D-04
 IDIUse=3 WtCom= 9.88D-01 WtEn= 1.17D-02
 Coeff-Com: -0.722D-01 0.395D+00 0.677D+00
 Coeff-En:   0.000D+00 0.000D+00 0.100D+01
 Coeff:     -0.714D-01 0.390D+00 0.681D+00
 Gap=     0.298 Goal=   None    Shift=    0.000
 Gap=     0.548 Goal=   None    Shift=    0.000
 RMSDP=2.46D-04 MaxDP=2.08D-03 DE=-8.09D-05 OVMax= 2.65D-03

 Cycle   4  Pass 0  IDiag  1:
 E= -76.1838506786513     Delta-E=       -0.000034111797 Rises=F Damp=F
 DIIS: error= 2.36D-04 at cycle   4 NSaved=   4.
 NSaved= 4 IEnMin= 4 EnMin= -76.1838506786513     IErMin= 4 ErrMin= 2.36D-04
 ErrMax= 2.36D-04  0.00D+00 EMaxC= 1.00D-01 BMatC= 7.34D-06 BMatP= 1.63D-04
 IDIUse=3 WtCom= 9.98D-01 WtEn= 2.36D-03
 Coeff-Com: -0.914D-02-0.316D-01 0.128D+00 0.913D+00
 Coeff-En:   0.000D+00 0.000D+00 0.000D+00 0.100D+01
 Coeff:     -0.912D-02-0.315D-01 0.128D+00 0.913D+00
 Gap=     0.298 Goal=   None    Shift=    0.000
 Gap=     0.549 Goal=   None    Shift=    0.000
 RMSDP=1.36D-04 MaxDP=1.83D-03 DE=-3.41D-05 OVMax= 1.01D-03

 Cycle   5  Pass 0  IDiag  1:
 E= -76.1838533679187     Delta-E=       -0.000002689267 Rises=F Damp=F
 DIIS: error= 1.06D-04 at cycle   5 NSaved=   5.
 NSaved= 5 IEnMin= 5 EnMin= -76.1838533679187     IErMin= 5 ErrMin= 1.06D-04
 ErrMax= 1.06D-04  0.00D+00 EMaxC= 1.00D-01 BMatC= 4.29D-07 BMatP= 7.34D-06
 IDIUse=3 WtCom= 9.99D-01 WtEn= 1.06D-03
 Coeff-Com:  0.612D-02-0.229D-01-0.593D-01-0.219D+00 0.130D+01
 Coeff-En:   0.000D+00 0.000D+00 0.000D+00 0.000D+00 0.100D+01
 Coeff:      0.611D-02-0.229D-01-0.593D-01-0.219D+00 0.129D+01
 Gap=     0.298 Goal=   None    Shift=    0.000
 Gap=     0.549 Goal=   None    Shift=    0.000
 RMSDP=1.05D-04 MaxDP=1.74D-03 DE=-2.69D-06 OVMax= 7.30D-04

 Cycle   6  Pass 0  IDiag  1:
 E= -76.1838539265335     Delta-E=       -0.000000558615 Rises=F Damp=F
 DIIS: error= 2.45D-05 at cycle   6 NSaved=   6.
 NSaved= 6 IEnMin= 6 EnMin= -76.1838539265335     IErMin= 6 ErrMin= 2.45D-05
 ErrMax= 2.45D-05  0.00D+00 EMaxC= 1.00D-01 BMatC= 6.77D-08 BMatP= 4.29D-07
 IDIUse=1 WtCom= 1.00D+00 WtEn= 0.00D+00
 Coeff-Com: -0.184D-02 0.125D-01 0.170D-01 0.436D-02-0.527D+00 0.149D+01
 Coeff:     -0.184D-02 0.125D-01 0.170D-01 0.436D-02-0.527D+00 0.149D+01
 Gap=     0.298 Goal=   None    Shift=    0.000
 Gap=     0.549 Goal=   None    Shift=    0.000
 RMSDP=8.35D-05 MaxDP=1.42D-03 DE=-5.59D-07 OVMax= 6.21D-04

 Cycle   7  Pass 0  IDiag  1:
 E= -76.1838540903023     Delta-E=       -0.000000163769 Rises=F Damp=F
 DIIS: error= 1.82D-05 at cycle   7 NSaved=   7.
 NSaved= 7 IEnMin= 7 EnMin= -76.1838540903023     IErMin= 7 ErrMin= 1.82D-05
 ErrMax= 1.82D-05  0.00D+00 EMaxC= 1.00D-01 BMatC= 2.20D-08 BMatP= 6.77D-08
 IDIUse=1 WtCom= 1.00D+00 WtEn= 0.00D+00
 Coeff-Com:  0.178D-02-0.133D-01-0.178D-01 0.130D-01 0.564D+00-0.196D+01
 Coeff-Com:  0.241D+01
 Coeff:      0.178D-02-0.133D-01-0.178D-01 0.130D-01 0.564D+00-0.196D+01
 Coeff:      0.241D+01
 Gap=     0.298 Goal=   None    Shift=    0.000
 Gap=     0.549 Goal=   None    Shift=    0.000
 RMSDP=9.63D-05 MaxDP=1.57D-03 DE=-1.64D-07 OVMax= 7.25D-04

 Cycle   8  Pass 0  IDiag  1:
 E= -76.1838541965217     Delta-E=       -0.000000106219 Rises=F Damp=F
 DIIS: error= 9.72D-06 at cycle   8 NSaved=   8.
 NSaved= 8 IEnMin= 8 EnMin= -76.1838541965217     IErMin= 8 ErrMin= 9.72D-06
 ErrMax= 9.72D-06  0.00D+00 EMaxC= 1.00D-01 BMatC= 7.73D-09 BMatP= 2.20D-08
 IDIUse=1 WtCom= 1.00D+00 WtEn= 0.00D+00
 Coeff-Com:  0.294D-03-0.116D-02-0.205D-02-0.163D-01 0.658D-01 0.656D-02
 Coeff-Com: -0.105D+01 0.200D+01
 Coeff:      0.294D-03-0.116D-02-0.205D-02-0.163D-01 0.658D-01 0.656D-02
 Coeff:     -0.105D+01 0.200D+01
 Gap=     0.298 Goal=   None    Shift=    0.000
 Gap=     0.549 Goal=   None    Shift=    0.000
 RMSDP=9.40D-05 MaxDP=1.54D-03 DE=-1.06D-07 OVMax= 7.06D-04

 Cycle   9  Pass 0  IDiag  1:
 E= -76.1838542420117     Delta-E=       -0.000000045490 Rises=F Damp=F
 DIIS: error= 2.67D-06 at cycle   9 NSaved=   9.
 NSaved= 9 IEnMin= 9 EnMin= -76.1838542420117     IErMin= 9 ErrMin= 2.67D-06
 ErrMax= 2.67D-06  0.00D+00 EMaxC= 1.00D-01 BMatC= 6.79D-10 BMatP= 7.73D-09
 IDIUse=1 WtCom= 1.00D+00 WtEn= 0.00D+00
 Coeff-Com: -0.329D-03 0.251D-02 0.329D-02-0.415D-02-0.962D-01 0.342D+00
 Coeff-Com: -0.299D+00-0.217D+00 0.127D+01
 Coeff:     -0.329D-03 0.251D-02 0.329D-02-0.415D-02-0.962D-01 0.342D+00
 Coeff:     -0.299D+00-0.217D+00 0.127D+01
 Gap=     0.298 Goal=   None    Shift=    0.000
 Gap=     0.549 Goal=   None    Shift=    0.000
 RMSDP=1.95D-05 MaxDP=3.20D-04 DE=-4.55D-08 OVMax= 1.46D-04

 Cycle  10  Pass 0  IDiag  1:
 E= -76.1838542444889     Delta-E=       -0.000000002477 Rises=F Damp=F
 DIIS: error= 1.34D-06 at cycle  10 NSaved=  10.
 NSaved=10 IEnMin=10 EnMin= -76.1838542444889     IErMin=10 ErrMin= 1.34D-06
 ErrMax= 1.34D-06  0.00D+00 EMaxC= 1.00D-01 BMatC= 1.12D-10 BMatP= 6.79D-10
 IDIUse=1 WtCom= 1.00D+00 WtEn= 0.00D+00
 Coeff-Com:  0.127D-03-0.106D-02-0.156D-02 0.333D-02 0.444D-01-0.186D+00
 Coeff-Com:  0.318D+00-0.240D+00-0.492D+00 0.155D+01
 Coeff:      0.127D-03-0.106D-02-0.156D-02 0.333D-02 0.444D-01-0.186D+00
 Coeff:      0.318D+00-0.240D+00-0.492D+00 0.155D+01
 Gap=     0.298 Goal=   None    Shift=    0.000
 Gap=     0.549 Goal=   None    Shift=    0.000
 RMSDP=7.46D-06 MaxDP=1.23D-04 DE=-2.48D-09 OVMax= 5.59D-05

 Initial convergence to 1.0D-05 achieved.  Increase integral accuracy.
 Cycle  11  Pass 1  IDiag  1:
 E= -76.1838554479647     Delta-E=       -0.000001203476 Rises=F Damp=F
 DIIS: error= 4.29D-07 at cycle   1 NSaved=   1.
 NSaved= 1 IEnMin= 1 EnMin= -76.1838554479647     IErMin= 1 ErrMin= 4.29D-07
 ErrMax= 4.29D-07  0.00D+00 EMaxC= 1.00D-01 BMatC= 2.27D-11 BMatP= 2.27D-11
 IDIUse=1 WtCom= 1.00D+00 WtEn= 0.00D+00
 Coeff-Com:  0.100D+01
 Coeff:      0.100D+01
 Gap=     0.298 Goal=   None    Shift=    0.000
 Gap=     0.549 Goal=   None    Shift=    0.000
 RMSDP=7.46D-06 MaxDP=1.23D-04 DE=-1.20D-06 OVMax= 1.32D-06

 Cycle  12  Pass 1  IDiag  1:
 E= -76.1838554479731     Delta-E=       -0.000000000008 Rises=F Damp=F
 DIIS: error= 2.29D-07 at cycle   2 NSaved=   2.
 NSaved= 2 IEnMin= 2 EnMin= -76.1838554479731     IErMin= 2 ErrMin= 2.29D-07
 ErrMax= 2.29D-07  0.00D+00 EMaxC= 1.00D-01 BMatC= 2.49D-12 BMatP= 2.27D-11
 IDIUse=1 WtCom= 1.00D+00 WtEn= 0.00D+00
 Coeff-Com: -0.205D+00 0.121D+01
 Coeff:     -0.205D+00 0.121D+01
 Gap=     0.298 Goal=   None    Shift=    0.000
 Gap=     0.549 Goal=   None    Shift=    0.000
 RMSDP=9.36D-08 MaxDP=1.36D-06 DE=-8.43D-12 OVMax= 8.79D-07

 Cycle  13  Pass 1  IDiag  1:
 E= -76.1838554479751     Delta-E=       -0.000000000002 Rises=F Damp=F
 DIIS: error= 1.06D-07 at cycle   3 NSaved=   3.
 NSaved= 3 IEnMin= 3 EnMin= -76.1838554479751     IErMin= 3 ErrMin= 1.06D-07
 ErrMax= 1.06D-07  0.00D+00 EMaxC= 1.00D-01 BMatC= 5.40D-13 BMatP= 2.49D-12
 IDIUse=1 WtCom= 1.00D+00 WtEn= 0.00D+00
 Coeff-Com: -0.469D-01-0.120D+00 0.117D+01
 Coeff:     -0.469D-01-0.120D+00 0.117D+01
 Gap=     0.298 Goal=   None    Shift=    0.000
 Gap=     0.549 Goal=   None    Shift=    0.000
 RMSDP=6.83D-08 MaxDP=1.01D-06 DE=-1.99D-12 OVMax= 4.70D-07

 Cycle  14  Pass 1  IDiag  1:
 E= -76.1838554479755     Delta-E=       -0.000000000000 Rises=F Damp=F
 DIIS: error= 6.06D-08 at cycle   4 NSaved=   4.
 NSaved= 4 IEnMin= 4 EnMin= -76.1838554479755     IErMin= 4 ErrMin= 6.06D-08
 ErrMax= 6.06D-08  0.00D+00 EMaxC= 1.00D-01 BMatC= 2.07D-13 BMatP= 5.40D-13
 IDIUse=1 WtCom= 1.00D+00 WtEn= 0.00D+00
 Coeff-Com:  0.424D-01-0.363D+00 0.393D+00 0.927D+00
 Coeff:      0.424D-01-0.363D+00 0.393D+00 0.927D+00
 Gap=     0.298 Goal=   None    Shift=    0.000
 Gap=     0.549 Goal=   None    Shift=    0.000
 RMSDP=5.38D-08 MaxDP=9.12D-07 DE=-3.98D-13 OVMax= 3.86D-07

 Cycle  15  Pass 1  IDiag  1:
 E= -76.1838554479758     Delta-E=       -0.000000000000 Rises=F Damp=F
 DIIS: error= 1.60D-08 at cycle   5 NSaved=   5.
 NSaved= 5 IEnMin= 5 EnMin= -76.1838554479758     IErMin= 5 ErrMin= 1.60D-08
 ErrMax= 1.60D-08  0.00D+00 EMaxC= 1.00D-01 BMatC= 3.02D-14 BMatP= 2.07D-13
 IDIUse=1 WtCom= 1.00D+00 WtEn= 0.00D+00
 Coeff-Com:  0.152D-01-0.450D-01-0.154D+00 0.173D+00 0.101D+01
 Coeff:      0.152D-01-0.450D-01-0.154D+00 0.173D+00 0.101D+01
 Gap=     0.298 Goal=   None    Shift=    0.000
 Gap=     0.549 Goal=   None    Shift=    0.000
 RMSDP=4.05D-08 MaxDP=6.58D-07 DE=-2.84D-13 OVMax= 3.02D-07

 Cycle  16  Pass 1  IDiag  1:
 E= -76.1838554479757     Delta-E=        0.000000000000 Rises=F Damp=F
 DIIS: error= 1.12D-08 at cycle   6 NSaved=   6.
 NSaved= 6 IEnMin= 5 EnMin= -76.1838554479758     IErMin= 6 ErrMin= 1.12D-08
 ErrMax= 1.12D-08  0.00D+00 EMaxC= 1.00D-01 BMatC= 8.71D-15 BMatP= 3.02D-14
 IDIUse=1 WtCom= 1.00D+00 WtEn= 0.00D+00
 Coeff-Com: -0.136D-01 0.648D-01 0.775D-01-0.221D+00-0.778D+00 0.187D+01
 Coeff:     -0.136D-01 0.648D-01 0.775D-01-0.221D+00-0.778D+00 0.187D+01
 Gap=     0.298 Goal=   None    Shift=    0.000
 Gap=     0.549 Goal=   None    Shift=    0.000
 RMSDP=4.71D-08 MaxDP=7.74D-07 DE= 4.26D-14 OVMax= 3.54D-07

 Cycle  17  Pass 1  IDiag  1:
 E= -76.1838554479758     Delta-E=       -0.000000000000 Rises=F Damp=F
 DIIS: error= 7.20D-09 at cycle   7 NSaved=   7.
 NSaved= 7 IEnMin= 7 EnMin= -76.1838554479758     IErMin= 7 ErrMin= 7.20D-09
 ErrMax= 7.20D-09  0.00D+00 EMaxC= 1.00D-01 BMatC= 3.88D-15 BMatP= 8.71D-15
 IDIUse=1 WtCom= 1.00D+00 WtEn= 0.00D+00
 Coeff-Com:  0.959D-02-0.718D-01 0.304D-01 0.181D+00 0.295D+00-0.232D+01
 Coeff-Com:  0.288D+01
 Coeff:      0.959D-02-0.718D-01 0.304D-01 0.181D+00 0.295D+00-0.232D+01
 Coeff:      0.288D+01
 Gap=     0.298 Goal=   None    Shift=    0.000
 Gap=     0.549 Goal=   None    Shift=    0.000
 RMSDP=7.19D-08 MaxDP=1.18D-06 DE=-9.95D-14 OVMax= 5.41D-07

 Cycle  18  Pass 1  IDiag  1:
 E= -76.1838554479759     Delta-E=       -0.000000000000 Rises=F Damp=F
 DIIS: error= 1.64D-09 at cycle   8 NSaved=   8.
 NSaved= 8 IEnMin= 8 EnMin= -76.1838554479759     IErMin= 8 ErrMin= 1.64D-09
 ErrMax= 1.64D-09  0.00D+00 EMaxC= 1.00D-01 BMatC= 2.30D-16 BMatP= 3.88D-15
 IDIUse=1 WtCom= 1.00D+00 WtEn= 0.00D+00
 Coeff-Com:  0.133D-04 0.601D-02-0.218D-01-0.833D-03 0.579D-01 0.258D+00
 Coeff-Com: -0.667D+00 0.137D+01
 Coeff:      0.133D-04 0.601D-02-0.218D-01-0.833D-03 0.579D-01 0.258D+00
 Coeff:     -0.667D+00 0.137D+01
 Gap=     0.298 Goal=   None    Shift=    0.000
 Gap=     0.549 Goal=   None    Shift=    0.000
 RMSDP=1.31D-08 MaxDP=2.14D-07 DE=-4.26D-14 OVMax= 9.85D-08

 Cycle  19  Pass 1  IDiag  1:
 E= -76.1838554479758     Delta-E=        0.000000000000 Rises=F Damp=F
 DIIS: error= 4.93D-10 at cycle   9 NSaved=   9.
 NSaved= 9 IEnMin= 8 EnMin= -76.1838554479759     IErMin= 9 ErrMin= 4.93D-10
 ErrMax= 4.93D-10  0.00D+00 EMaxC= 1.00D-01 BMatC= 2.46D-17 BMatP= 2.30D-16
 IDIUse=1 WtCom= 1.00D+00 WtEn= 0.00D+00
 Coeff-Com: -0.101D-02 0.757D-02-0.407D-02-0.174D-01-0.311D-01 0.224D+00
 Coeff-Com: -0.306D+00 0.992D-02 0.112D+01
 Coeff:     -0.101D-02 0.757D-02-0.407D-02-0.174D-01-0.311D-01 0.224D+00
 Coeff:     -0.306D+00 0.992D-02 0.112D+01
 Gap=     0.298 Goal=   None    Shift=    0.000
 Gap=     0.549 Goal=   None    Shift=    0.000
 RMSDP=4.34D-09 MaxDP=7.12D-08 DE= 5.68D-14 OVMax= 3.26D-08

 SCF Done:  E(ULC-wHPBE) =  -76.1838554480     A.U. after   19 cycles
            NFock= 19  Conv=0.43D-08     -V/T= 2.0022
 <Sx>= 0.0000 <Sy>= 0.0000 <Sz>= 0.5000 <S**2>= 0.7535 S= 0.5017
 <L.S>= 0.000000000000E+00
 KE= 7.601502009074D+01 PE=-2.012470205878D+02 EE= 4.034771768812D+01
 Annihilation of the first spin contaminant:
 S**2 before annihilation     0.7535,   after     0.7500
 Leave Link  502 at Mon Aug 29 15:02:03 2022, MaxMem=  6442450944 cpu:               8.4 elap:               0.5
 (Enter /mnt/gpfs3_amd/share/apps/amd/gaussian/g16-A.03/g16/l701.exe)
 ... and contract with generalized density number  0.
 Compute integral first derivatives.
   2 Symmetry operations used in ECPInt.
 ECPInt:  NShTT=      78 NPrTT=     272 LenC2=      79 LenP2D=     271.
 LDataN:  DoStor=T MaxTD1= 5 Len=  102
 Leave Link  701 at Mon Aug 29 15:02:03 2022, MaxMem=  6442450944 cpu:               1.3 elap:               0.1
 (Enter /mnt/gpfs3_amd/share/apps/amd/gaussian/g16-A.03/g16/l702.exe)
 L702 exits ... SP integral derivatives will be done elsewhere.
 Leave Link  702 at Mon Aug 29 15:02:03 2022, MaxMem=  6442450944 cpu:               0.1 elap:               0.0
 (Enter /mnt/gpfs3_amd/share/apps/amd/gaussian/g16-A.03/g16/l703.exe)
 Integral derivatives from FoFJK, PRISM(SPDF).
 Compute integral first derivatives, UseDBF=F ICtDFT=           0.
 Calling FoFJK, ICntrl=      2127 FMM=F ISym2X=1 I1Cent= 0 IOpClX= 1 NMat=1 NMatS=1 NMatT=0.
 FoFJK:  IHMeth= 1 ICntrl=    2127 DoSepK=T KAlg= 0 I1Cent=           0 FoldK=F
 IRaf=         1 NMat=       1 IRICut=       1 DoRegI=T DoRafI=F ISym2E= 1 IDoP0=0 IntGTp=1.
 FoFCou: FMM=F IPFlag=           0 FMFlag=      100000 FMFlg1=         800
         NFxFlg=           0 DoJE=F BraDBF=F KetDBF=F FulRan=T
         wScrn=  0.000000 ICntrl=      2527 IOpCl=  0 I1Cent=           0 NGrid=           0
         NMat0=    1 NMatS0=      1 NMatT0=    0 NMatD0=    1 NMtDS0=    0 NMtDT0=    0
 Petite list used in FoFCou.
 Leave Link  703 at Mon Aug 29 15:02:04 2022, MaxMem=  6442450944 cpu:               4.0 elap:               0.3
 (Enter /mnt/gpfs3_amd/share/apps/amd/gaussian/g16-A.03/g16/l716.exe)
 Dipole        = 4.21935010D-02 4.12835672D-01-2.22156348D-33
 ***** Axes restored to original set *****
 -------------------------------------------------------------------
 Center     Atomic                   Forces (Hartrees/Bohr)
 Number     Number              X              Y              Z
 -------------------------------------------------------------------
      1        8           0.001173826    0.015909555   -0.000000000
      2        1          -0.002353437   -0.008523532    0.000000000
      3        1           0.001179611   -0.007386023   -0.000000000
 -------------------------------------------------------------------
 Cartesian Forces:  Max     0.015909555 RMS     0.006571199
 Leave Link  716 at Mon Aug 29 15:02:04 2022, MaxMem=  6442450944 cpu:               0.1 elap:               0.0
 (Enter /mnt/gpfs3_amd/share/apps/amd/gaussian/g16-A.03/g16/l103.exe)

 GradGradGradGradGradGradGradGradGradGradGradGradGradGradGradGradGradGrad
 Berny optimization.
 Using GEDIIS/GDIIS optimizer.
 FormGI is forming the generalized inverse of G from B-inverse, IUseBI=4.
 Internal  Forces:  Max     0.009521542 RMS     0.007643894
 Search for a local minimum.
 Step number   2 out of a maximum of   20
 All quantities printed in internal units (Hartrees-Bohrs-Radians)
 RMS Force = .76439D-02 SwitMx=.10000D-02 MixMth= 1
 Mixed Optimization -- RFO/linear search
 Update second derivatives using D2CorX and points    1    2
 DE= -3.82D-03 DEPred=-2.94D-03 R= 1.30D+00
 TightC=F SS=  1.41D+00  RLast= 1.55D-01 DXNew= 5.0454D-01 4.6411D-01
 Trust test= 1.30D+00 RLast= 1.55D-01 DXMaxT set to 4.64D-01
 The second derivative matrix:
                          R1        R2        A1
           R1           0.49009
           R2          -0.01664   0.48034
           A1           0.03607   0.02837   0.12026
 ITU=  1  0
 Use linear search instead of GDIIS.
     Eigenvalues ---    0.11434   0.47337   0.50299
 RFO step:  Lambda=-1.19555878D-04 EMin= 1.14342504D-01
 Quartic linear search produced a step of  0.55731.
 Iteration  1 RMS(Cart)=  0.05348735 RMS(Int)=  0.00193962
 Iteration  2 RMS(Cart)=  0.00197879 RMS(Int)=  0.00000080
 Iteration  3 RMS(Cart)=  0.00000073 RMS(Int)=  0.00000000
 ITry= 1 IFail=0 DXMaxC= 5.62D-02 DCOld= 1.00D+10 DXMaxT= 4.64D-01 DXLimC= 3.00D+00 Rises=F
 ClnCor:  largest displacement from symmetrization is 4.58D-16 for atom     2.
 Variable       Old X    -DE/DX   Delta X   Delta X   Delta X     New X
                                 (Linear)    (Quad)   (Total)
    R1        1.90649   0.00730   0.03014  -0.00681   0.02333   1.92982
    R2        1.92115   0.00560   0.02629  -0.00750   0.01879   1.93994
    A1        1.75228  -0.00952  -0.07638  -0.02086  -0.09724   1.65504
         Item               Value     Threshold  Converged?
 Maximum Force            0.009522     0.000450     NO 
 RMS     Force            0.007644     0.000300     NO 
 Maximum Displacement     0.056186     0.001800     NO 
 RMS     Displacement     0.054556     0.001200     NO 
 Predicted change in Energy=-5.555825D-04
 Lowest energy point so far.  Saving SCF results.
 GradGradGradGradGradGradGradGradGradGradGradGradGradGradGradGradGradGrad

 Leave Link  103 at Mon Aug 29 15:02:04 2022, MaxMem=  6442450944 cpu:               0.1 elap:               0.0
 (Enter /mnt/gpfs3_amd/share/apps/amd/gaussian/g16-A.03/g16/l202.exe)
                          Input orientation:                          
 ---------------------------------------------------------------------
 Center     Atomic      Atomic             Coordinates (Angstroms)
 Number     Number       Type             X           Y           Z
 ---------------------------------------------------------------------
      1          8           0       -0.004212    0.461897    0.000000
      2          1           0       -0.751739   -0.233869    0.000000
      3          1           0        0.755951   -0.228029   -0.000000
 ---------------------------------------------------------------------
                    Distance matrix (angstroms):
                    1          2          3
     1  O    0.000000
     2  H    1.021218   0.000000
     3  H    1.026570   1.507701   0.000000
 Stoichiometry    H2O(1-,2)
 Framework group  CS[SG(H2O)]
 Deg. of freedom     3
 Full point group                 CS      NOp   2
 RotChk:  IX=0 Diff= 2.86D-03
 Largest Abelian subgroup         CS      NOp   2
 Largest concise Abelian subgroup C1      NOp   1
                         Standard orientation:                         
 ---------------------------------------------------------------------
 Center     Atomic      Atomic             Coordinates (Angstroms)
 Number     Number       Type             X           Y           Z
 ---------------------------------------------------------------------
      1          8           0        0.000000    0.138575    0.000000
      2          1           0        0.753840   -0.550345   -0.000000
      3          1           0       -0.753840   -0.558254   -0.000000
 ---------------------------------------------------------------------
 Rotational constants (GHZ):         588.1469830         441.1596043         252.0791118
 Leave Link  202 at Mon Aug 29 15:02:04 2022, MaxMem=  6442450944 cpu:               0.0 elap:               0.0
 (Enter /mnt/gpfs3_amd/share/apps/amd/gaussian/g16-A.03/g16/l301.exe)
 Standard basis: def2SVP (5D, 7F)
 Ernie: Thresh=  0.10000D-02 Tol=  0.10000D-05 Strict=F.
 There are    19 symmetry adapted cartesian basis functions of A'  symmetry.
 There are     6 symmetry adapted cartesian basis functions of A"  symmetry.
 There are    18 symmetry adapted basis functions of A'  symmetry.
 There are     6 symmetry adapted basis functions of A"  symmetry.
    24 basis functions,    39 primitive gaussians,    25 cartesian basis functions
     6 alpha electrons        5 beta electrons
       nuclear repulsion energy         8.6202898906 Hartrees.
 IExCor=33909 DFT=T Ex+Corr=LC-wHPBE ExCW=0 ScaHFX=  1.000000
 ScaDFX=  1.000000  1.000000  1.000000  1.000000 ScalE2=  1.000000  1.000000
 IRadAn=      5 IRanWt=     -1 IRanGd=            0 ICorTp=0 IEmpDi=  4
 HFx  wShort=  0.000000 wLong=  0.499400 cFull=  0.000000 cShort=  0.000000 cLong=  1.000000
 DFx  wShort=  0.000000 wLong=  0.499400 cFull=  0.000000 cShort=  1.000000 cLong=  0.000000
 NAtoms=    3 NActive=    3 NUniq=    3 SFac= 1.00D+00 NAtFMM=   60 NAOKFM=F Big=F
 Integral buffers will be    131072 words long.
 Raffenetti 2 integral format.
 Two-electron integral symmetry is turned on.
 Leave Link  301 at Mon Aug 29 15:02:04 2022, MaxMem=  6442450944 cpu:               0.3 elap:               0.0
 (Enter /mnt/gpfs3_amd/share/apps/amd/gaussian/g16-A.03/g16/l302.exe)
 NPDir=0 NMtPBC=     1 NCelOv=     1 NCel=       1 NClECP=     1 NCelD=      1
         NCelK=      1 NCelE2=     1 NClLst=     1 CellRange=     0.0.
 One-electron integrals computed using PRISM.
 One-electron integral symmetry used in STVInt
   2 Symmetry operations used in ECPInt.
 ECPInt:  NShTT=      78 NPrTT=     272 LenC2=      79 LenP2D=     271.
 LDataN:  DoStor=T MaxTD1= 4 Len=   56
 NBasis=    24 RedAO= T EigKep=  4.07D-02  NBF=    18     6
 NBsUse=    24 1.00D-06 EigRej= -1.00D+00 NBFU=    18     6
 Precomputing XC quadrature grid using
 IXCGrd= 4 IRadAn=           5 IRanWt=          -1 IRanGd=           0 AccXCQ= 0.00D+00.
 Generated NRdTot=       0 NPtTot=           0 NUsed=           0 NTot=          32
 NSgBfM=    25    25    25    25    25 MxSgAt=     3 MxSgA2=     3.
 Leave Link  302 at Mon Aug 29 15:02:04 2022, MaxMem=  6442450944 cpu:               1.2 elap:               0.1
 (Enter /mnt/gpfs3_amd/share/apps/amd/gaussian/g16-A.03/g16/l303.exe)
 DipDrv:  MaxL=1.
 Leave Link  303 at Mon Aug 29 15:02:04 2022, MaxMem=  6442450944 cpu:               0.1 elap:               0.0
 (Enter /mnt/gpfs3_amd/share/apps/amd/gaussian/g16-A.03/g16/l401.exe)
 Initial guess from the checkpoint file:  "/scratch/rdu230/d3tales/high_throughput/runfiles//05XICU/gaussian/gas_phase/opt/opt_anion1.chk"
 B after Tr=    -0.000000    0.000000    0.000000
         Rot=    1.000000   -0.000000    0.000000    0.000787 Ang=   0.09 deg.
 Guess basis will be translated and rotated to current coordinates.
 JPrj=2 DoOrth=T DoCkMO=T.
 Initial guess orbital symmetries:
 Alpha Orbitals:
       Occupied  (A') (A') (A') (A') (A") (A')
       Virtual   (A') (A') (A') (A') (A") (A') (A') (A") (A') (A")
                 (A') (A') (A') (A") (A") (A') (A') (A')
 Beta  Orbitals:
       Occupied  (A') (A') (A') (A') (A")
       Virtual   (A') (A') (A') (A') (A') (A") (A') (A') (A") (A')
                 (A") (A') (A') (A') (A") (A") (A') (A') (A')
 The electronic state of the initial guess is 2-A'.
 Initial guess <Sx>= 0.0000 <Sy>= 0.0000 <Sz>= 0.5000 <S**2>= 0.7534 S= 0.5017
 Generating alternative initial guess.
 ExpMin= 1.22D-01 ExpMax= 2.27D+03 ExpMxC= 3.41D+02 IAcc=2 IRadAn=         4 AccDes= 0.00D+00
 Harris functional with IExCor=33909 and IRadAn=       4 diagonalized for initial guess.
 HarFok:  IExCor=33909 AccDes= 0.00D+00 IRadAn=         4 IDoV= 1 UseB2=F ITyADJ=14
 ICtDFT=  3500011 ScaDFX=  1.000000  1.000000  1.000000  1.000000
 FoFCou: FMM=F IPFlag=           0 FMFlag=      100000 FMFlg1=           0
         NFxFlg=           0 DoJE=T BraDBF=F KetDBF=T FulRan=T
         wScrn=  0.000000 ICntrl=       500 IOpCl=  0 I1Cent=   200000004 NGrid=           0
         NMat0=    1 NMatS0=      1 NMatT0=    0 NMatD0=    1 NMtDS0=    0 NMtDT0=    0
 Petite list used in FoFCou.
 Harris En= -73.7794280921738    
 Leave Link  401 at Mon Aug 29 15:02:04 2022, MaxMem=  6442450944 cpu:               2.3 elap:               0.2
 (Enter /mnt/gpfs3_amd/share/apps/amd/gaussian/g16-A.03/g16/l502.exe)
 Keep R1 and R2 ints in memory in symmetry-blocked form, NReq=13884302.
 FoFCou: FMM=F IPFlag=           0 FMFlag=           0 FMFlg1=           0
         NFxFlg=           0 DoJE=F BraDBF=F KetDBF=F FulRan=T
         wScrn=  0.000000 ICntrl=       600 IOpCl=  0 I1Cent=           0 NGrid=           0
         NMat0=    1 NMatS0=    300 NMatT0=    0 NMatD0=    1 NMtDS0=    0 NMtDT0=    0
 Petite list used in FoFCou.
 UHF open shell SCF:
 Using DIIS extrapolation, IDIIS=  1040.
 NGot=  6442450944 LenX=  6442399050 LenY=  6442397984
 Requested convergence on RMS density matrix=1.00D-08 within 512 cycles.
 Requested convergence on MAX density matrix=1.00D-06.
 Requested convergence on             energy=1.00D-06.
 No special actions if energy rises.
 Integral accuracy reduced to 1.0D-05 until final iterations.

 Cycle   1  Pass 0  IDiag  1:
 E= -76.1838570594861    
 DIIS: error= 3.50D-03 at cycle   1 NSaved=   1.
 NSaved= 1 IEnMin= 1 EnMin= -76.1838570594861     IErMin= 1 ErrMin= 3.50D-03
 ErrMax= 3.50D-03  0.00D+00 EMaxC= 1.00D-01 BMatC= 1.79D-03 BMatP= 1.79D-03
 IDIUse=3 WtCom= 9.65D-01 WtEn= 3.50D-02
 Coeff-Com:  0.100D+01
 Coeff-En:   0.100D+01
 Coeff:      0.100D+01
 Gap=     0.303 Goal=   None    Shift=    0.000
 Gap=     0.547 Goal=   None    Shift=    0.000
 GapD=    0.303 DampG=1.000 DampE=1.000 DampFc=1.0000 IDamp=-1.
 RMSDP=1.33D-03 MaxDP=8.05D-03              OVMax= 9.75D-03

 Cycle   2  Pass 0  IDiag  1:
 E= -76.1843873822050     Delta-E=       -0.000530322719 Rises=F Damp=F
 DIIS: error= 9.87D-04 at cycle   2 NSaved=   2.
 NSaved= 2 IEnMin= 2 EnMin= -76.1843873822050     IErMin= 2 ErrMin= 9.87D-04
 ErrMax= 9.87D-04  0.00D+00 EMaxC= 1.00D-01 BMatC= 1.41D-04 BMatP= 1.79D-03
 IDIUse=3 WtCom= 9.90D-01 WtEn= 9.87D-03
 Coeff-Com: -0.202D-01 0.102D+01
 Coeff-En:   0.000D+00 0.100D+01
 Coeff:     -0.200D-01 0.102D+01
 Gap=     0.303 Goal=   None    Shift=    0.000
 Gap=     0.550 Goal=   None    Shift=    0.000
 RMSDP=4.99D-04 MaxDP=6.61D-03 DE=-5.30D-04 OVMax= 2.25D-03

 Cycle   3  Pass 0  IDiag  1:
 E= -76.1844144634421     Delta-E=       -0.000027081237 Rises=F Damp=F
 DIIS: error= 7.18D-04 at cycle   3 NSaved=   3.
 NSaved= 3 IEnMin= 3 EnMin= -76.1844144634421     IErMin= 3 ErrMin= 7.18D-04
 ErrMax= 7.18D-04  0.00D+00 EMaxC= 1.00D-01 BMatC= 6.46D-05 BMatP= 1.41D-04
 IDIUse=3 WtCom= 9.93D-01 WtEn= 7.18D-03
 Coeff-Com: -0.791D-01 0.422D+00 0.657D+00
 Coeff-En:   0.000D+00 0.000D+00 0.100D+01
 Coeff:     -0.786D-01 0.419D+00 0.659D+00
 Gap=     0.303 Goal=   None    Shift=    0.000
 Gap=     0.548 Goal=   None    Shift=    0.000
 RMSDP=1.55D-04 MaxDP=1.66D-03 DE=-2.71D-05 OVMax= 1.45D-03

 Cycle   4  Pass 0  IDiag  1:
 E= -76.1844272505842     Delta-E=       -0.000012787142 Rises=F Damp=F
 DIIS: error= 1.30D-04 at cycle   4 NSaved=   4.
 NSaved= 4 IEnMin= 4 EnMin= -76.1844272505842     IErMin= 4 ErrMin= 1.30D-04
 ErrMax= 1.30D-04  0.00D+00 EMaxC= 1.00D-01 BMatC= 1.96D-06 BMatP= 6.46D-05
 IDIUse=3 WtCom= 9.99D-01 WtEn= 1.30D-03
 Coeff-Com: -0.776D-02-0.195D-01 0.114D+00 0.913D+00
 Coeff-En:   0.000D+00 0.000D+00 0.000D+00 0.100D+01
 Coeff:     -0.775D-02-0.194D-01 0.114D+00 0.913D+00
 Gap=     0.303 Goal=   None    Shift=    0.000
 Gap=     0.548 Goal=   None    Shift=    0.000
 RMSDP=6.90D-05 MaxDP=1.01D-03 DE=-1.28D-05 OVMax= 4.61D-04

 Cycle   5  Pass 0  IDiag  1:
 E= -76.1844279435589     Delta-E=       -0.000000692975 Rises=F Damp=F
 DIIS: error= 5.25D-05 at cycle   5 NSaved=   5.
 NSaved= 5 IEnMin= 5 EnMin= -76.1844279435589     IErMin= 5 ErrMin= 5.25D-05
 ErrMax= 5.25D-05  0.00D+00 EMaxC= 1.00D-01 BMatC= 1.18D-07 BMatP= 1.96D-06
 IDIUse=1 WtCom= 1.00D+00 WtEn= 0.00D+00
 Coeff-Com:  0.521D-02-0.230D-01-0.453D-01-0.168D+00 0.123D+01
 Coeff:      0.521D-02-0.230D-01-0.453D-01-0.168D+00 0.123D+01
 Gap=     0.303 Goal=   None    Shift=    0.000
 Gap=     0.548 Goal=   None    Shift=    0.000
 RMSDP=6.04D-05 MaxDP=1.01D-03 DE=-6.93D-07 OVMax= 4.45D-04

 Cycle   6  Pass 0  IDiag  1:
 E= -76.1844281124520     Delta-E=       -0.000000168893 Rises=F Damp=F
 DIIS: error= 1.76D-05 at cycle   6 NSaved=   6.
 NSaved= 6 IEnMin= 6 EnMin= -76.1844281124520     IErMin= 6 ErrMin= 1.76D-05
 ErrMax= 1.76D-05  0.00D+00 EMaxC= 1.00D-01 BMatC= 2.86D-08 BMatP= 1.18D-07
 IDIUse=1 WtCom= 1.00D+00 WtEn= 0.00D+00
 Coeff-Com: -0.222D-02 0.154D-01 0.170D-01-0.116D-01-0.675D+00 0.166D+01
 Coeff:     -0.222D-02 0.154D-01 0.170D-01-0.116D-01-0.675D+00 0.166D+01
 Gap=     0.303 Goal=   None    Shift=    0.000
 Gap=     0.548 Goal=   None    Shift=    0.000
 RMSDP=6.23D-05 MaxDP=1.05D-03 DE=-1.69D-07 OVMax= 4.72D-04

 Cycle   7  Pass 0  IDiag  1:
 E= -76.1844281928854     Delta-E=       -0.000000080433 Rises=F Damp=F
 DIIS: error= 1.18D-05 at cycle   7 NSaved=   7.
 NSaved= 7 IEnMin= 7 EnMin= -76.1844281928854     IErMin= 7 ErrMin= 1.18D-05
 ErrMax= 1.18D-05  0.00D+00 EMaxC= 1.00D-01 BMatC= 9.42D-09 BMatP= 2.86D-08
 IDIUse=1 WtCom= 1.00D+00 WtEn= 0.00D+00
 Coeff-Com:  0.208D-02-0.158D-01-0.175D-01 0.339D-01 0.715D+00-0.219D+01
 Coeff-Com:  0.248D+01
 Coeff:      0.208D-02-0.158D-01-0.175D-01 0.339D-01 0.715D+00-0.219D+01
 Coeff:      0.248D+01
 Gap=     0.303 Goal=   None    Shift=    0.000
 Gap=     0.548 Goal=   None    Shift=    0.000
 RMSDP=6.73D-05 MaxDP=1.10D-03 DE=-8.04D-08 OVMax= 5.14D-04

 Cycle   8  Pass 0  IDiag  1:
 E= -76.1844282406490     Delta-E=       -0.000000047764 Rises=F Damp=F
 DIIS: error= 6.00D-06 at cycle   8 NSaved=   8.
 NSaved= 8 IEnMin= 8 EnMin= -76.1844282406490     IErMin= 8 ErrMin= 6.00D-06
 ErrMax= 6.00D-06  0.00D+00 EMaxC= 1.00D-01 BMatC= 2.74D-09 BMatP= 9.42D-09
 IDIUse=1 WtCom= 1.00D+00 WtEn= 0.00D+00
 Coeff-Com:  0.597D-04 0.328D-03 0.178D-03-0.164D-01-0.153D-01 0.270D+00
 Coeff-Com: -0.125D+01 0.201D+01
 Coeff:      0.597D-04 0.328D-03 0.178D-03-0.164D-01-0.153D-01 0.270D+00
 Coeff:     -0.125D+01 0.201D+01
 Gap=     0.303 Goal=   None    Shift=    0.000
 Gap=     0.548 Goal=   None    Shift=    0.000
 RMSDP=5.78D-05 MaxDP=9.44D-04 DE=-4.78D-08 OVMax= 4.41D-04

 Cycle   9  Pass 0  IDiag  1:
 E= -76.1844282566223     Delta-E=       -0.000000015973 Rises=F Damp=F
 DIIS: error= 1.40D-06 at cycle   9 NSaved=   9.
 NSaved= 9 IEnMin= 9 EnMin= -76.1844282566223     IErMin= 9 ErrMin= 1.40D-06
 ErrMax= 1.40D-06  0.00D+00 EMaxC= 1.00D-01 BMatC= 1.84D-10 BMatP= 2.74D-09
 IDIUse=1 WtCom= 1.00D+00 WtEn= 0.00D+00
 Coeff-Com: -0.274D-03 0.208D-02 0.233D-02-0.567D-02-0.856D-01 0.269D+00
 Coeff-Com: -0.215D+00-0.139D+00 0.117D+01
 Coeff:     -0.274D-03 0.208D-02 0.233D-02-0.567D-02-0.856D-01 0.269D+00
 Coeff:     -0.215D+00-0.139D+00 0.117D+01
 Gap=     0.303 Goal=   None    Shift=    0.000
 Gap=     0.548 Goal=   None    Shift=    0.000
 RMSDP=6.46D-06 MaxDP=1.05D-04 DE=-1.60D-08 OVMax= 4.94D-05

 Initial convergence to 1.0D-05 achieved.  Increase integral accuracy.
 Cycle  10  Pass 1  IDiag  1:
 E= -76.1844310838997     Delta-E=       -0.000002827277 Rises=F Damp=F
 DIIS: error= 8.94D-07 at cycle   1 NSaved=   1.
 NSaved= 1 IEnMin= 1 EnMin= -76.1844310838997     IErMin= 1 ErrMin= 8.94D-07
 ErrMax= 8.94D-07  0.00D+00 EMaxC= 1.00D-01 BMatC= 5.96D-11 BMatP= 5.96D-11
 IDIUse=1 WtCom= 1.00D+00 WtEn= 0.00D+00
 Coeff-Com:  0.100D+01
 Coeff:      0.100D+01
 Gap=     0.303 Goal=   None    Shift=    0.000
 Gap=     0.548 Goal=   None    Shift=    0.000
 RMSDP=6.46D-06 MaxDP=1.05D-04 DE=-2.83D-06 OVMax= 5.26D-06

 Cycle  11  Pass 1  IDiag  1:
 E= -76.1844310839447     Delta-E=       -0.000000000045 Rises=F Damp=F
 DIIS: error= 5.19D-07 at cycle   2 NSaved=   2.
 NSaved= 2 IEnMin= 2 EnMin= -76.1844310839447     IErMin= 2 ErrMin= 5.19D-07
 ErrMax= 5.19D-07  0.00D+00 EMaxC= 1.00D-01 BMatC= 1.70D-11 BMatP= 5.96D-11
 IDIUse=1 WtCom= 1.00D+00 WtEn= 0.00D+00
 Coeff-Com: -0.512D+00 0.151D+01
 Coeff:     -0.512D+00 0.151D+01
 Gap=     0.303 Goal=   None    Shift=    0.000
 Gap=     0.548 Goal=   None    Shift=    0.000
 RMSDP=9.10D-07 MaxDP=1.50D-05 DE=-4.49D-11 OVMax= 6.90D-06

 Cycle  12  Pass 1  IDiag  1:
 E= -76.1844310839737     Delta-E=       -0.000000000029 Rises=F Damp=F
 DIIS: error= 2.24D-07 at cycle   3 NSaved=   3.
 NSaved= 3 IEnMin= 3 EnMin= -76.1844310839737     IErMin= 3 ErrMin= 2.24D-07
 ErrMax= 2.24D-07  0.00D+00 EMaxC= 1.00D-01 BMatC= 5.43D-12 BMatP= 1.70D-11
 IDIUse=1 WtCom= 1.00D+00 WtEn= 0.00D+00
 Coeff-Com: -0.185D+00-0.104D+00 0.129D+01
 Coeff:     -0.185D+00-0.104D+00 0.129D+01
 Gap=     0.303 Goal=   None    Shift=    0.000
 Gap=     0.548 Goal=   None    Shift=    0.000
 RMSDP=7.56D-07 MaxDP=1.23D-05 DE=-2.90D-11 OVMax= 5.73D-06

 Cycle  13  Pass 1  IDiag  1:
 E= -76.1844310839869     Delta-E=       -0.000000000013 Rises=F Damp=F
 DIIS: error= 1.56D-07 at cycle   4 NSaved=   4.
 NSaved= 4 IEnMin= 4 EnMin= -76.1844310839869     IErMin= 4 ErrMin= 1.56D-07
 ErrMax= 1.56D-07  0.00D+00 EMaxC= 1.00D-01 BMatC= 1.96D-12 BMatP= 5.43D-12
 IDIUse=1 WtCom= 1.00D+00 WtEn= 0.00D+00
 Coeff-Com:  0.322D-01-0.251D+00 0.201D+00 0.102D+01
 Coeff:      0.322D-01-0.251D+00 0.201D+00 0.102D+01
 Gap=     0.303 Goal=   None    Shift=    0.000
 Gap=     0.548 Goal=   None    Shift=    0.000
 RMSDP=4.62D-07 MaxDP=7.68D-06 DE=-1.33D-11 OVMax= 3.52D-06

 Cycle  14  Pass 1  IDiag  1:
 E= -76.1844310839918     Delta-E=       -0.000000000005 Rises=F Damp=F
 DIIS: error= 1.16D-07 at cycle   5 NSaved=   5.
 NSaved= 5 IEnMin= 5 EnMin= -76.1844310839918     IErMin= 5 ErrMin= 1.16D-07
 ErrMax= 1.16D-07  0.00D+00 EMaxC= 1.00D-01 BMatC= 1.06D-12 BMatP= 1.96D-12
 IDIUse=1 WtCom= 1.00D+00 WtEn= 0.00D+00
 Coeff-Com:  0.289D-01 0.250D+00-0.853D+00 0.513D-01 0.152D+01
 Coeff:      0.289D-01 0.250D+00-0.853D+00 0.513D-01 0.152D+01
[...]
 Gap=     0.303 Goal=   None    Shift=    0.000
 Gap=     0.548 Goal=   None    Shift=    0.000
 RMSDP=4.12D-05 MaxDP=6.72D-04 DE=-1.31D-08 OVMax= 3.15D-04

 Cycle   7  Pass 1  IDiag  1:
 E= -76.1844330762511     Delta-E=       -0.000000009108 Rises=F Damp=F
 DIIS: error= 1.25D-06 at cycle   7 NSaved=   7.
 NSaved= 7 IEnMin= 7 EnMin= -76.1844330762511     IErMin= 7 ErrMin= 1.25D-06
 ErrMax= 1.25D-06  0.00D+00 EMaxC= 1.00D-01 BMatC= 9.95D-11 BMatP= 1.50D-09
 IDIUse=1 WtCom= 1.00D+00 WtEn= 0.00D+00
 Coeff-Com:  0.107D-02-0.123D-01-0.200D-02 0.140D+00 0.165D+00-0.720D+00
 Coeff-Com:  0.143D+01
 Coeff:      0.107D-02-0.123D-01-0.200D-02 0.140D+00 0.165D+00-0.720D+00
 Coeff:      0.143D+01
 Gap=     0.303 Goal=   None    Shift=    0.000
 Gap=     0.548 Goal=   None    Shift=    0.000
 RMSDP=8.59D-06 MaxDP=1.42D-04 DE=-9.11D-09 OVMax= 6.40D-05

 Cycle   8  Pass 1  IDiag  1:
 E= -76.1844330766945     Delta-E=       -0.000000000443 Rises=F Damp=F
 DIIS: error= 3.50D-07 at cycle   8 NSaved=   8.
 NSaved= 8 IEnMin= 8 EnMin= -76.1844330766945     IErMin= 8 ErrMin= 3.50D-07
 ErrMax= 3.50D-07  0.00D+00 EMaxC= 1.00D-01 BMatC= 1.09D-11 BMatP= 9.95D-11
 IDIUse=1 WtCom= 1.00D+00 WtEn= 0.00D+00
 Coeff-Com:  0.119D-02-0.849D-02-0.841D-02 0.146D-01 0.146D+00-0.263D+00
 Coeff-Com: -0.639D-01 0.118D+01
 Coeff:      0.119D-02-0.849D-02-0.841D-02 0.146D-01 0.146D+00-0.263D+00
 Coeff:     -0.639D-01 0.118D+01
 Gap=     0.303 Goal=   None    Shift=    0.000
 Gap=     0.548 Goal=   None    Shift=    0.000
 RMSDP=2.76D-06 MaxDP=4.59D-05 DE=-4.43D-10 OVMax= 2.07D-05

 Cycle   9  Pass 1  IDiag  1:
 E= -76.1844330767263     Delta-E=       -0.000000000032 Rises=F Damp=F
 DIIS: error= 1.03D-07 at cycle   9 NSaved=   9.
 NSaved= 9 IEnMin= 9 EnMin= -76.1844330767263     IErMin= 9 ErrMin= 1.03D-07
 ErrMax= 1.03D-07  0.00D+00 EMaxC= 1.00D-01 BMatC= 7.81D-13 BMatP= 1.09D-11
 IDIUse=1 WtCom= 1.00D+00 WtEn= 0.00D+00
 Coeff-Com: -0.428D-03 0.349D-02 0.258D-02-0.162D-01-0.500D-01 0.132D+00
 Coeff-Com: -0.913D-01-0.356D+00 0.138D+01
 Coeff:     -0.428D-03 0.349D-02 0.258D-02-0.162D-01-0.500D-01 0.132D+00
 Coeff:     -0.913D-01-0.356D+00 0.138D+01
 Gap=     0.303 Goal=   None    Shift=    0.000
 Gap=     0.548 Goal=   None    Shift=    0.000
 RMSDP=6.03D-08 MaxDP=7.70D-07 DE=-3.18D-11 OVMax= 8.03D-07

 Cycle  10  Pass 1  IDiag  1:
 E= -76.1844330767271     Delta-E=       -0.000000000001 Rises=F Damp=F
 DIIS: error= 4.14D-08 at cycle  10 NSaved=  10.
 NSaved=10 IEnMin=10 EnMin= -76.1844330767271     IErMin=10 ErrMin= 4.14D-08
 ErrMax= 4.14D-08  0.00D+00 EMaxC= 1.00D-01 BMatC= 8.41D-14 BMatP= 7.81D-13
 IDIUse=1 WtCom= 1.00D+00 WtEn= 0.00D+00
 Coeff-Com:  0.120D-03-0.108D-02-0.793D-03 0.667D-02 0.160D-01-0.512D-01
 Coeff-Com:  0.591D-01 0.874D-01-0.764D+00 0.165D+01
 Coeff:      0.120D-03-0.108D-02-0.793D-03 0.667D-02 0.160D-01-0.512D-01
 Coeff:      0.591D-01 0.874D-01-0.764D+00 0.165D+01
 Gap=     0.303 Goal=   None    Shift=    0.000
 Gap=     0.548 Goal=   None    Shift=    0.000
 RMSDP=4.57D-08 MaxDP=6.69D-07 DE=-7.96D-13 OVMax= 3.79D-07

 Cycle  11  Pass 1  IDiag  1:
 E= -76.1844330767271     Delta-E=        0.000000000000 Rises=F Damp=F
 DIIS: error= 7.92D-09 at cycle  11 NSaved=  11.
 NSaved=11 IEnMin=10 EnMin= -76.1844330767271     IErMin=11 ErrMin= 7.92D-09
 ErrMax= 7.92D-09  0.00D+00 EMaxC= 1.00D-01 BMatC= 2.68D-15 BMatP= 8.41D-14
 IDIUse=1 WtCom= 1.00D+00 WtEn= 0.00D+00
 Coeff-Com: -0.301D-04 0.287D-03 0.207D-03-0.184D-02-0.460D-02 0.154D-01
 Coeff-Com: -0.202D-01-0.195D-01 0.247D+00-0.662D+00 0.144D+01
 Coeff:     -0.301D-04 0.287D-03 0.207D-03-0.184D-02-0.460D-02 0.154D-01
 Coeff:     -0.202D-01-0.195D-01 0.247D+00-0.662D+00 0.144D+01
 Gap=     0.303 Goal=   None    Shift=    0.000
 Gap=     0.548 Goal=   None    Shift=    0.000
 RMSDP=8.34D-09 MaxDP=1.28D-07 DE= 0.00D+00 OVMax= 6.24D-08

 SCF Done:  E(ULC-wHPBE) =  -76.1844330767     A.U. after   11 cycles
            NFock= 11  Conv=0.83D-08     -V/T= 2.0025
 <Sx>= 0.0000 <Sy>= 0.0000 <Sz>= 0.5000 <S**2>= 0.7535 S= 0.5018
 <L.S>= 0.000000000000E+00
 KE= 7.599269486745D+01 PE=-2.010809008497D+02 EE= 4.028312083733D+01
 Annihilation of the first spin contaminant:
 S**2 before annihilation     0.7535,   after     0.7500
 Leave Link  502 at Mon Aug 29 15:02:06 2022, MaxMem=  6442450944 cpu:               7.7 elap:               0.5
 (Enter /mnt/gpfs3_amd/share/apps/amd/gaussian/g16-A.03/g16/l701.exe)
 ... and contract with generalized density number  0.
 Compute integral first derivatives.
   2 Symmetry operations used in ECPInt.
 ECPInt:  NShTT=      78 NPrTT=     272 LenC2=      79 LenP2D=     271.
 LDataN:  DoStor=T MaxTD1= 5 Len=  102
 Leave Link  701 at Mon Aug 29 15:02:06 2022, MaxMem=  6442450944 cpu:               1.3 elap:               0.1
 (Enter /mnt/gpfs3_amd/share/apps/amd/gaussian/g16-A.03/g16/l702.exe)
 L702 exits ... SP integral derivatives will be done elsewhere.
 Leave Link  702 at Mon Aug 29 15:02:06 2022, MaxMem=  6442450944 cpu:               0.1 elap:               0.0
 (Enter /mnt/gpfs3_amd/share/apps/amd/gaussian/g16-A.03/g16/l703.exe)
 Integral derivatives from FoFJK, PRISM(SPDF).
 Compute integral first derivatives, UseDBF=F ICtDFT=           0.
 Calling FoFJK, ICntrl=      2127 FMM=F ISym2X=1 I1Cent= 0 IOpClX= 1 NMat=1 NMatS=1 NMatT=0.
 FoFJK:  IHMeth= 1 ICntrl=    2127 DoSepK=T KAlg= 0 I1Cent=           0 FoldK=F
 IRaf=         1 NMat=       1 IRICut=       1 DoRegI=T DoRafI=F ISym2E= 1 IDoP0=0 IntGTp=1.
 FoFCou: FMM=F IPFlag=           0 FMFlag=      100000 FMFlg1=         800
         NFxFlg=           0 DoJE=F BraDBF=F KetDBF=F FulRan=T
         wScrn=  0.000000 ICntrl=      2527 IOpCl=  0 I1Cent=           0 NGrid=           0
         NMat0=    1 NMatS0=      1 NMatT0=    0 NMatD0=    1 NMtDS0=    0 NMtDT0=    0
 Petite list used in FoFCou.
 Leave Link  703 at Mon Aug 29 15:02:06 2022, MaxMem=  6442450944 cpu:               4.1 elap:               0.3
 (Enter /mnt/gpfs3_amd/share/apps/amd/gaussian/g16-A.03/g16/l716.exe)
 Dipole        = 2.36449534D-02 4.46092030D-01 0.00000000D+00
 ***** Axes restored to original set *****
 -------------------------------------------------------------------
 Center     Atomic                   Forces (Hartrees/Bohr)
 Number     Number              X              Y              Z
 -------------------------------------------------------------------
      1        8           0.000497847    0.000078971   -0.000000000
      2        1          -0.000318111   -0.000267721    0.000000000
      3        1          -0.000179736    0.000188750    0.000000000
 -------------------------------------------------------------------
 Cartesian Forces:  Max     0.000497847 RMS     0.000234495
 Leave Link  716 at Mon Aug 29 15:02:06 2022, MaxMem=  6442450944 cpu:               0.1 elap:               0.0
 (Enter /mnt/gpfs3_amd/share/apps/amd/gaussian/g16-A.03/g16/l103.exe)

 GradGradGradGradGradGradGradGradGradGradGradGradGradGradGradGradGradGrad
 Berny optimization.
 Using GEDIIS/GDIIS optimizer.
 FormGI is forming the generalized inverse of G from B-inverse, IUseBI=4.
 Internal  Forces:  Max     0.000415315 RMS     0.000283712
 Search for a local minimum.
 Step number   4 out of a maximum of   20
 All quantities printed in internal units (Hartrees-Bohrs-Radians)
 RMS Force = .28371D-03 SwitMx=.10000D-02 MixMth= 2
 Mixed Optimization -- En-DIIS/RFO-DIIS
 Swapping is turned off.
 Update second derivatives using D2CorX and points    1    2    3    4
 DE= -1.99D-06 DEPred=-1.69D-06 R= 1.18D+00
 TightC=F SS=  1.41D+00  RLast= 5.01D-03 DXNew= 7.8054D-01 1.5041D-02
 Trust test= 1.18D+00 RLast= 5.01D-03 DXMaxT set to 4.64D-01
 The second derivative matrix:
                          R1        R2        A1
           R1           0.41741
           R2           0.02764   0.44959
           A1          -0.02833   0.06969   0.12669
 ITU=  1  1  1  0
     Eigenvalues ---    0.10868   0.41231   0.47271
 En-DIIS/RFO-DIIS/Sim-DIIS IScMMF=       -3 using points:     4    3
 RFO step:  Lambda=-7.08525642D-07.
 NNeg= 0 NGDIIS= 2 SimSw=  2.50D-01 Rises=F DC= -1.99D-06 SmlDif=  1.00D-05
 NRisDI= 0 DoIntr=F SqrtH=F CThrHd= 10.0 CDAdj=  3.0
 RMS Error=  0.9765753982D-03 NUsed= 2 OKEnD=F EnDIS=F
 InvSVX:  RCond= 6.28D-06 Info=           0 Equed=N FErr=  1.65D-15 BErr=  7.58D-17
 DidBck=F Rises=F RFO-DIIS coefs:    1.24362   -0.24362
 Iteration  1 RMS(Cart)=  0.00087084 RMS(Int)=  0.00000034
 Iteration  2 RMS(Cart)=  0.00000024 RMS(Int)=  0.00000000
 ITry= 1 IFail=0 DXMaxC= 1.10D-03 DCOld= 1.00D+10 DXMaxT= 4.64D-01 DXLimC= 3.00D+00 Rises=F
 ClnCor:  largest displacement from symmetrization is 2.78D-16 for atom     2.
 Variable       Old X    -DE/DX   Delta X   Delta X   Delta X     New X
                                 (Linear)    (Quad)   (Total)
    R1        1.93027   0.00042   0.00011   0.00101   0.00112   1.93139
    R2        1.93896  -0.00026  -0.00024  -0.00056  -0.00080   1.93816
    A1        1.65994   0.00004   0.00119  -0.00020   0.00099   1.66093
         Item               Value     Threshold  Converged?
 Maximum Force            0.000415     0.000450     YES
 RMS     Force            0.000284     0.000300     YES
 Maximum Displacement     0.001099     0.001800     YES
 RMS     Displacement     0.000871     0.001200     YES
 Predicted change in Energy=-3.542628D-07
 Optimization completed.
    -- Stationary point found.
                           ----------------------------
                           !   Optimized Parameters   !
                           ! (Angstroms and Degrees)  !
 --------------------------                            --------------------------
 ! Name  Definition              Value          Derivative Info.                !
 --------------------------------------------------------------------------------
 ! R1    R(1,2)                  1.0215         -DE/DX =    0.0004              !
 ! R2    R(1,3)                  1.0261         -DE/DX =   -0.0003              !
 ! A1    A(2,1,3)               95.1076         -DE/DX =    0.0                 !
 --------------------------------------------------------------------------------
 Lowest energy point so far.  Saving SCF results.
 Largest change from initial coordinates is atom    2       0.095 Angstoms.
 GradGradGradGradGradGradGradGradGradGradGradGradGradGradGradGradGradGrad

 Leave Link  103 at Mon Aug 29 15:02:06 2022, MaxMem=  6442450944 cpu:               0.1 elap:               0.0
 (Enter /mnt/gpfs3_amd/share/apps/amd/gaussian/g16-A.03/g16/l202.exe)
                          Input orientation:                          
 ---------------------------------------------------------------------
 Center     Atomic      Atomic             Coordinates (Angstroms)
 Number     Number       Type             X           Y           Z
 ---------------------------------------------------------------------
      1          8           0       -0.003936    0.460605    0.000000
      2          1           0       -0.753468   -0.233350    0.000000
      3          1           0        0.757404   -0.227255   -0.000000
 ---------------------------------------------------------------------
                    Distance matrix (angstroms):
                    1          2          3
     1  O    0.000000
     2  H    1.021456   0.000000
     3  H    1.026055   1.510885   0.000000
 Stoichiometry    H2O(1-,2)
 Framework group  CS[SG(H2O)]
 Deg. of freedom     3
 Full point group                 CS      NOp   2
 RotChk:  IX=0 Diff= 2.92D-16
 Largest Abelian subgroup         CS      NOp   2
 Largest concise Abelian subgroup C1      NOp   1
                         Standard orientation:                         
 ---------------------------------------------------------------------
 Center     Atomic      Atomic             Coordinates (Angstroms)
 Number     Number       Type             X           Y           Z
 ---------------------------------------------------------------------
      1          8           0        0.000000    0.138187    0.000000
      2          1           0        0.755435   -0.549339    0.000000
      3          1           0       -0.755435   -0.556153    0.000000
 ---------------------------------------------------------------------
 Rotational constants (GHZ):         591.4397803         439.3127613         252.0750932
 Leave Link  202 at Mon Aug 29 15:02:06 2022, MaxMem=  6442450944 cpu:               0.0 elap:               0.0
 (Enter /mnt/gpfs3_amd/share/apps/amd/gaussian/g16-A.03/g16/l601.exe)
 Copying SCF densities to generalized density rwf, IOpCl= 1 IROHF=0.

 **********************************************************************

            Population analysis using the SCF density.

 **********************************************************************

 Orbital symmetries:
 Alpha Orbitals:
       Occupied  (A') (A') (A') (A') (A") (A')
       Virtual   (A') (A') (A') (A') (A") (A') (A') (A') (A") (A")
                 (A') (A') (A') (A") (A") (A') (A') (A')
 Beta  Orbitals:
       Occupied  (A') (A') (A') (A') (A")
       Virtual   (A') (A') (A') (A') (A') (A") (A') (A') (A') (A")
                 (A") (A') (A') (A') (A") (A") (A') (A') (A')
 The electronic state is 2-A'.
 Alpha  occ. eigenvalues --  -18.68923  -0.82138  -0.31122  -0.23355  -0.13378
 Alpha  occ. eigenvalues --    0.12878
 Alpha virt. eigenvalues --    0.43131   0.93784   1.02501   1.33949   1.35841
 Alpha virt. eigenvalues --    1.43392   1.56315   1.75301   1.82851   1.95324
 Alpha virt. eigenvalues --    2.24364   2.55051   2.61185   3.37579   3.40015
 Alpha virt. eigenvalues --    3.55010   3.87177   4.24669
  Beta  occ. eigenvalues --  -18.68361  -0.80331  -0.30264  -0.21600  -0.12684
  Beta virt. eigenvalues --    0.42143   0.48927   0.94760   1.06012   1.35248
  Beta virt. eigenvalues --    1.37181   1.44538   1.57632   1.76385   1.83902
  Beta virt. eigenvalues --    1.96330   2.25626   2.56701   2.63166   3.37999
  Beta virt. eigenvalues --    3.41539   3.56251   3.88253   4.25908
          Condensed to atoms (all electrons):
               1          2          3
     1  O    9.131719  -0.414452  -0.432001
     2  H   -0.414452   1.371692   0.394335
     3  H   -0.432001   0.394335   1.400824
          Atomic-Atomic Spin Densities.
               1          2          3
     1  O    1.401352  -0.723930  -0.741372
     2  H   -0.723930   0.815478   0.432483
     3  H   -0.741372   0.432483   0.848810
 Mulliken charges and spin densities:
               1          2
     1  O   -0.285266  -0.063951
     2  H   -0.351575   0.524030
     3  H   -0.363159   0.539920
 Sum of Mulliken charges =  -1.00000   1.00000
 Mulliken charges and spin densities with hydrogens summed into heavy atoms:
               1          2
     1  O   -1.000000   1.000000
 Electronic spatial extent (au):  <R**2>=             32.4983
 Charge=             -1.0000 electrons
 Dipole moment (field-independent basis, Debye):
    X=              0.0601    Y=              1.1339    Z=             -0.0000  Tot=              1.1354
 Quadrupole moment (field-independent basis, Debye-Ang):
   XX=            -11.6789   YY=            -12.1844   ZZ=            -10.6969
   XY=             -0.0556   XZ=             -0.0000   YZ=              0.0000
 Traceless Quadrupole moment (field-independent basis, Debye-Ang):
   XX=             -0.1588   YY=             -0.6643   ZZ=              0.8232
   XY=             -0.0556   XZ=             -0.0000   YZ=              0.0000
 Octapole moment (field-independent basis, Debye-Ang**2):
  XXX=              0.1796  YYY=              7.6371  ZZZ=             -0.0000  XYY=              0.0818
  XXY=              3.2825  XXZ=             -0.0000  XZZ=              0.0435  YZZ=              2.1057
  YYZ=             -0.0000  XYZ=              0.0000
 Hexadecapole moment (field-independent basis, Debye-Ang**3):
 XXXX=            -29.2048 YYYY=            -25.5337 ZZZZ=            -12.3007 XXXY=             -0.1639
 XXXZ=             -0.0000 YYYX=             -0.1521 YYYZ=              0.0000 ZZZX=             -0.0000
 ZZZY=              0.0000 XXYY=             -9.2973 XXZZ=             -6.7526 YYZZ=             -6.2223
 XXYZ=              0.0000 YYXZ=             -0.0000 ZZXY=             -0.0425
 N-N= 8.620652068217D+00 E-N=-2.010809008566D+02  KE= 7.599269486745D+01
 Symmetry A'   KE= 7.149943802052D+01
 Symmetry A"   KE= 4.493256846938D+00
 Symmetry A'   SP= 1.000000000000D+00
 Symmetry A"   SP= 5.126324711946D-15
                          Isotropic Fermi Contact Couplings
        Atom                 a.u.       MegaHertz       Gauss      10(-4) cm-1
     1  O(17)              1.01024    -612.40614    -218.52174    -204.27670
     2  H(1)               0.00240      10.73177       3.82936       3.57973
     3  H(1)               0.00286      12.79896       4.56699       4.26927
 --------------------------------------------------------
       Center         ----  Spin Dipole Couplings  ----
                      3XX-RR        3YY-RR        3ZZ-RR
 --------------------------------------------------------
     1   Atom       -0.473905      0.686154     -0.212249
     2   Atom        0.049941     -0.012249     -0.037692
     3   Atom        0.048440     -0.010831     -0.037610
 --------------------------------------------------------
                        XY            XZ            YZ
 --------------------------------------------------------
     1   Atom        0.009153      0.000000      0.000000
     2   Atom       -0.038640     -0.000000     -0.000000
     3   Atom        0.039510      0.000000      0.000000
 --------------------------------------------------------


 ---------------------------------------------------------------------------------
              Anisotropic Spin Dipole Couplings in Principal Axis System
 ---------------------------------------------------------------------------------

       Atom             a.u.   MegaHertz   Gauss  10(-4) cm-1        Axes

              Baa    -0.4740    34.297    12.238    11.440  1.0000 -0.0079 -0.0000
     1 O(17)  Bbb    -0.2122    15.358     5.480     5.123  0.0000  0.0000  1.0000
              Bcc     0.6862   -49.655   -17.718   -16.563  0.0079  1.0000  0.0000
 
              Baa    -0.0377   -20.111    -7.176    -6.708  0.0000  0.0000  1.0000
     2 H(1)   Bbb    -0.0308   -16.408    -5.855    -5.473  0.4319  0.9019  0.0000
              Bcc     0.0684    36.518    13.031    12.181  0.9019 -0.4319  0.0000
 
              Baa    -0.0376   -20.067    -7.160    -6.694  0.0000  0.0000  1.0000
     3 H(1)   Bbb    -0.0306   -16.319    -5.823    -5.443 -0.4472  0.8944 -0.0000
              Bcc     0.0682    36.385    12.983    12.137  0.8944  0.4472  0.0000
 

 ---------------------------------------------------------------------------------

 No NMR shielding tensors so no spin-rotation constants.
 Leave Link  601 at Mon Aug 29 15:02:06 2022, MaxMem=  6442450944 cpu:               2.2 elap:               0.1
 (Enter /mnt/gpfs3_amd/share/apps/amd/gaussian/g16-A.03/g16/l9999.exe)

 Test job not archived.
 1\1\GINC-MCC-LOGIN002\FOpt\ULC-wHPBE\def2SVP\H2O1(1-,2)\RDU230\29-Aug-
 2022\0\\#P LC-wHPBE/Def2SVP iop(3/107=0499400000, 3/108=0499400000) op
 t scf(maxcyc=512)\\H2 O1\\-1,2\O,-0.0039355832,0.4606048727,0.\H,-0.75
 34684734,-0.2333501736,0.\H,0.7574040566,-0.2272546991,0.\\Version=AM6
 4L-G16RevA.03\State=2-A'\HF=-76.1844331\S2=0.753512\S2-1=0.\S2A=0.7500
 03\RMSD=8.338e-09\RMSF=2.345e-04\Dipole=-0.0274555,0.4458737,0.\Quadru
 pole=-0.1188216,-0.4931828,0.6120044,0.0445575,0.,0.\PG=CS [SG(H2O1)]\
 \@


 LIVE PURE, SPEAK TRUE, RIGHT WRONG, FOLLOW THE KING...
 ELSE, WHEREFORE BORN......
           IDYLLS OF THE KING, TENNYSON
 Job cpu time:       0 days  0 hours  1 minutes 22.3 seconds.
 Elapsed time:       0 days  0 hours  0 minutes  5.7 seconds.
 File lengths (MBytes):  RWF=    136 Int=      0 D2E=      0 Chk=     16 Scr=     16
 Normal termination of Gaussian 16 at Mon Aug 29 15:02:06 2022.
