 Entering Gaussian System, Link 0=/mnt/gpfs3_amd/share/apps/amd/gaussian/g16-A.03/g16/g16
 Input=energy_cation1.com
 Output=energy_cation1.log
 Initial command:
 /mnt/gpfs3_amd/share/apps/amd/gaussian/g16-A.03/g16/l1.exe "/scratch/rdu230/d3tales/high_throughput/runfiles/05XICU/gaussian/solv_acetonitrile/energy/cation1/Gau-2209306.inp" -scrdir="/scratch/rdu230/d3tales/high_throughput/runfiles/05XICU/gaussian/solv_acetonitrile/energy/cation1/"
 Entering Link 1 = /mnt/gpfs3_amd/share/apps/amd/gaussian/g16-A.03/g16/l1.exe PID=   2209307.
  
 Copyright (c) 1988,1990,1992,1993,1995,1998,2003,2009,2016,
            Gaussian, Inc.  All Rights Reserved.
  
 This is part of the Gaussian(R) 16 program.  It is based on
 the Gaussian(R) 09 system (copyright 2009, Gaussian, Inc.),
 the Gaussian(R) 03 system (copyright 2003, Gaussian, Inc.),
 the Gaussian(R) 98 system (copyright 1998, Gaussian, Inc.),
 the Gaussian(R) 94 system (copyright 1995, Gaussian, Inc.),
 the Gaussian 92(TM) system (copyright 1992, Gaussian, Inc.),
 the Gaussian 90(TM) system (copyright 1990, Gaussian, Inc.),
 the Gaussian 88(TM) system (copyright 1988, Gaussian, Inc.),
 the Gaussian 86(TM) system (copyright 1986, Carnegie Mellon
 University), and the Gaussian 82(TM) system (copyright 1983,
 Carnegie Mellon University). Gaussian is a federally registered
 trademark of Gaussian, Inc.
  
 This software contains proprietary and confidential information,
 including trade secrets, belonging to Gaussian, Inc.
  
 This software is provided under written license and may be
 used, copied, transmitted, or stored only in accord with that
 written license.
  
 The following legend is applicable only to US Government
 contracts under FAR:
  
                    RESTRICTED RIGHTS LEGEND
  
 Use, reproduction and disclosure by the US Government is
 subject to restrictions as set forth in subparagraphs (a)
 and (c) of the Commercial Computer Software - Restricted
 Rights clause in FAR 52.227-19.
  
 Gaussian, Inc.
 340 Quinnipiac St., Bldg. 40, Wallingford CT 06492
  
  
 ---------------------------------------------------------------
 Warning -- This program may not be used in any manner that
 competes with the business of Gaussian, Inc. or will provide
 assistance to any competitor of Gaussian, Inc.  The licensee
 of this program is prohibited from giving any competitor of
 Gaussian, Inc. access to this program.  By using this program,
 the user acknowledges that Gaussian, Inc. is engaged in the
 business of creating and licensing software in the field of
 computational chemistry and represents and warrants to the
 licensee that it is not a competitor of Gaussian, Inc. and that
 it will not use this program in any manner prohibited above.
 ---------------------------------------------------------------
  

 Cite this work as:
 Gaussian 16, Revision A.03,
 M. J. Frisch, G. W. Trucks, H. B. Schlegel, G. E. Scuseria, 
 M. A. Robb, J. R. Cheeseman, G. Scalmani, V. Barone, 
 G. A. Petersson, H. Nakatsuji, X. Li, M. Caricato, A. V. Marenich, 
 J. Bloino, B. G. Janesko, R. Gomperts, B. Mennucci, H. P. Hratchian, 
 J. V. Ortiz, A. F. Izmaylov, J. L. Sonnenberg, D. Williams-Young, 
 F. Ding, F. Lipparini, F. Egidi, J. Goings, B. Peng, A. Petrone, 
 T. Henderson, D. Ranasinghe, V. G. Zakrzewski, J. Gao, N. Rega, 
 G. Zheng, W. Liang, M. Hada, M. Ehara, K. Toyota, R. Fukuda, 
 J. Hasegawa, M. Ishida, T. Nakajima, Y. Honda, O. Kitao, H. Nakai, 
 T. Vreven, K. Throssell, J. A. Montgomery, Jr., J. E. Peralta, 
 F. Ogliaro, M. J. Bearpark, J. J. Heyd, E. N. Brothers, K. N. Kudin, 
 V. N. Staroverov, T. A. Keith, R. Kobayashi, J. Normand, 
 K. Raghavachari, A. P. Rendell, J. C. Burant, S. S. Iyengar, 
 J. Tomasi, M. Cossi, J. M. Millam, M. Klene, C. Adamo, R. Cammi, 
 J. W. Ochterski, R. L. Martin, K. Morokuma, O. Farkas, 
 J. B. Foresman, and D. J. Fox, Gaussian, Inc., Wallingford CT, 2016.
 
 ******************************************
 Gaussian 16:  AM64L-G16RevA.03 25-Dec-2016
                 3-Feb-2022 
 ******************************************
 %chk=energy_cation1.chk
 %mem=48GB
 %nprocshared=16
 Will use up to   16 processors via shared memory.
 ----------------------------------------------------------------------
 #P LC-wHPBE/Def2SVP SCRF=(PCM,Solvent=acetonitrile) iop(3/107=04994000
 00, 3/108=0499400000)
 ----------------------------------------------------------------------
 1/38=1,172=1/1;
 2/12=2,17=6,18=5,40=1/2;
 3/5=43,7=101,11=2,25=1,30=1,70=2201,72=2,74=-71,107=499400000,108=499400000/1,2,3;
 4//1;
 5/5=2,38=5,53=2/2;
 6/7=2,8=2,9=2,10=2,28=1/1;
 99/5=1,9=1/99;
 Leave Link    1 at Thu Feb  3 15:55:52 2022, MaxMem=  6442450944 cpu:               4.0 elap:               0.3
 (Enter /mnt/gpfs3_amd/share/apps/amd/gaussian/g16-A.03/g16/l101.exe)
 -----
 H2 O1
 -----
 Symbolic Z-matrix:
 Charge =  1 Multiplicity = 2
 O                     0.        0.11488   0. 
 H                     0.82322  -0.45942   0. 
 H                    -0.82322  -0.4596    0. 
 
 ITRead=  0  0  0
 MicOpt= -1 -1 -1
 NAtoms=      3 NQM=        3 NQMF=       0 NMMI=      0 NMMIF=      0
                NMic=       0 NMicF=      0.
                    Isotopes and Nuclear Properties:
 (Nuclear quadrupole moments (NQMom) in fm**2, nuclear magnetic moments (NMagM)
  in nuclear magnetons)

  Atom         1           2           3
 IAtWgt=          16           1           1
 AtmWgt=  15.9949146   1.0078250   1.0078250
 NucSpn=           0           1           1
 AtZEff=  -0.0000000  -0.0000000  -0.0000000
 NQMom=    0.0000000   0.0000000   0.0000000
 NMagM=    0.0000000   2.7928460   2.7928460
 AtZNuc=   8.0000000   1.0000000   1.0000000
 Leave Link  101 at Thu Feb  3 15:55:52 2022, MaxMem=  6442450944 cpu:               0.6 elap:               0.0
 (Enter /mnt/gpfs3_amd/share/apps/amd/gaussian/g16-A.03/g16/l202.exe)
                          Input orientation:                          
 ---------------------------------------------------------------------
 Center     Atomic      Atomic             Coordinates (Angstroms)
 Number     Number       Type             X           Y           Z
 ---------------------------------------------------------------------
      1          8           0        0.000000    0.114876    0.000000
      2          1           0        0.823221   -0.459416    0.000000
      3          1           0       -0.823221   -0.459596    0.000000
 ---------------------------------------------------------------------
                    Distance matrix (angstroms):
                    1          2          3
     1  O    0.000000
     2  H    1.003745   0.000000
     3  H    1.003848   1.646442   0.000000
 Stoichiometry    H2O(1+,2)
 Framework group  CS[SG(H2O)]
 Deg. of freedom     3
 Full point group                 CS      NOp   2
 Largest Abelian subgroup         CS      NOp   2
 Largest concise Abelian subgroup C1      NOp   1
                         Standard orientation:                         
 ---------------------------------------------------------------------
 Center     Atomic      Atomic             Coordinates (Angstroms)
 Number     Number       Type             X           Y           Z
 ---------------------------------------------------------------------
      1          8           0        0.000000    0.114876    0.000000
      2          1           0        0.823221   -0.459416    0.000000
      3          1           0       -0.823221   -0.459596    0.000000
 ---------------------------------------------------------------------
 Rotational constants (GHZ):         855.7478770         369.9722669         258.2995666
 Leave Link  202 at Thu Feb  3 15:55:52 2022, MaxMem=  6442450944 cpu:               0.4 elap:               0.0
 (Enter /mnt/gpfs3_amd/share/apps/amd/gaussian/g16-A.03/g16/l301.exe)
 Standard basis: def2SVP (5D, 7F)
 Ernie: Thresh=  0.10000D-02 Tol=  0.10000D-05 Strict=F.
 There are    19 symmetry adapted cartesian basis functions of A'  symmetry.
 There are     6 symmetry adapted cartesian basis functions of A"  symmetry.
 There are    18 symmetry adapted basis functions of A'  symmetry.
 There are     6 symmetry adapted basis functions of A"  symmetry.
    24 basis functions,    39 primitive gaussians,    25 cartesian basis functions
     5 alpha electrons        4 beta electrons
       nuclear repulsion energy         8.7562187878 Hartrees.
 IExCor=33909 DFT=T Ex+Corr=LC-wHPBE ExCW=0 ScaHFX=  1.000000
 ScaDFX=  1.000000  1.000000  1.000000  1.000000 ScalE2=  1.000000  1.000000
 IRadAn=      5 IRanWt=     -1 IRanGd=            0 ICorTp=0 IEmpDi=  4
 HFx  wShort=  0.000000 wLong=  0.499400 cFull=  0.000000 cShort=  0.000000 cLong=  1.000000
 DFx  wShort=  0.000000 wLong=  0.499400 cFull=  0.000000 cShort=  1.000000 cLong=  0.000000
 NAtoms=    3 NActive=    3 NUniq=    3 SFac= 1.00D+00 NAtFMM=   60 NAOKFM=F Big=F
 Integral buffers will be    131072 words long.
 Raffenetti 2 integral format.
 Two-electron integral symmetry is turned on.
 ------------------------------------------------------------------------------
 Polarizable Continuum Model (PCM)
 =================================
 Model                : PCM.
 Atomic radii         : UFF (Universal Force Field).
 Polarization charges : Total charges.
 Charge compensation  : None.
 Solution method      : On-the-fly selection.
 Cavity type          : Scaled VdW (van der Waals Surface) (Alpha=1.100).
 Cavity algorithm     : GePol (No added spheres)
                        Default sphere list used, NSphG=    3.
                        Lebedev-Laikov grids with approx.  5.0 points / Ang**2.
                        Smoothing algorithm: York/Karplus (Gamma=1.0000).
                        Polarization charges: spherical gaussians, with
                                              point-specific exponents (IZeta= 3).
                        Self-potential: point-specific (ISelfS= 7).
                        Self-field    : sphere-specific E.n sum rule (ISelfD= 2).
 Solvent              : Acetonitrile, Eps=  35.688000 Eps(inf)=   1.806874
 ------------------------------------------------------------------------------
 Spheres list:
 ISph  on   Nord     Re0    Alpha      Xe            Ye            Ze
    1   O      1    1.7500  1.100      0.000000      0.114876      0.000000
    2   H      2    1.4430  1.100      0.823221     -0.459416      0.000000
    3   H      3    1.4430  1.100     -0.823221     -0.459596      0.000000
 ------------------------------------------------------------------------------
 GePol: Number of generator spheres                  =       3
 GePol: Total number of spheres                      =       3
 GePol: Number of exposed spheres                    =       3 (100.00%)
 GePol: Number of points                             =     400
 GePol: Average weight of points                     =       0.14
 GePol: Minimum weight of points                     =   0.43D-05
 GePol: Maximum weight of points                     =    0.20212
 GePol: Number of points with low weight             =      24
 GePol: Fraction of low-weight points (<1% of avg)   =       6.00%
 GePol: Cavity surface area                          =     56.687 Ang**2
 GePol: Cavity volume                                =     38.255 Ang**3
 Leave Link  301 at Thu Feb  3 15:55:52 2022, MaxMem=  6442450944 cpu:               0.5 elap:               0.0
 (Enter /mnt/gpfs3_amd/share/apps/amd/gaussian/g16-A.03/g16/l302.exe)
 NPDir=0 NMtPBC=     1 NCelOv=     1 NCel=       1 NClECP=     1 NCelD=      1
         NCelK=      1 NCelE2=     1 NClLst=     1 CellRange=     0.0.
 One-electron integrals computed using PRISM.
 One-electron integral symmetry used in STVInt
   2 Symmetry operations used in ECPInt.
 ECPInt:  NShTT=      78 NPrTT=     272 LenC2=      79 LenP2D=     271.
 LDataN:  DoStor=T MaxTD1= 4 Len=   56
 NBasis=    24 RedAO= T EigKep=  4.28D-02  NBF=    18     6
 NBsUse=    24 1.00D-06 EigRej= -1.00D+00 NBFU=    18     6
 Precomputing XC quadrature grid using
 IXCGrd= 4 IRadAn=           5 IRanWt=          -1 IRanGd=           0 AccXCQ= 0.00D+00.
 Generated NRdTot=       0 NPtTot=           0 NUsed=           0 NTot=          32
 NSgBfM=    25    25    25    25    25 MxSgAt=     3 MxSgA2=     3.
 Leave Link  302 at Thu Feb  3 15:55:52 2022, MaxMem=  6442450944 cpu:               2.0 elap:               0.1
 (Enter /mnt/gpfs3_amd/share/apps/amd/gaussian/g16-A.03/g16/l303.exe)
 DipDrv:  MaxL=1.
 Leave Link  303 at Thu Feb  3 15:55:52 2022, MaxMem=  6442450944 cpu:               0.2 elap:               0.0
 (Enter /mnt/gpfs3_amd/share/apps/amd/gaussian/g16-A.03/g16/l401.exe)
 ExpMin= 1.22D-01 ExpMax= 2.27D+03 ExpMxC= 3.41D+02 IAcc=3 IRadAn=         5 AccDes= 0.00D+00
 Harris functional with IExCor=33909 and IRadAn=       5 diagonalized for initial guess.
 HarFok:  IExCor=33909 AccDes= 0.00D+00 IRadAn=         5 IDoV= 1 UseB2=F ITyADJ=14
 ICtDFT=  3500011 ScaDFX=  1.000000  1.000000  1.000000  1.000000
 FoFCou: FMM=F IPFlag=           0 FMFlag=      100000 FMFlg1=           0
         NFxFlg=           0 DoJE=T BraDBF=F KetDBF=T FulRan=T
         wScrn=  0.000000 ICntrl=       500 IOpCl=  0 I1Cent=   200000004 NGrid=           0
         NMat0=    1 NMatS0=      1 NMatT0=    0 NMatD0=    1 NMtDS0=    0 NMtDT0=    0
 Petite list used in FoFCou.
 Harris En= -73.7762466238547    
 JPrj=0 DoOrth=F DoCkMO=F.
 Initial guess orbital symmetries:
 Alpha Orbitals:
       Occupied  (A') (A') (A') (A') (A")
       Virtual   (A') (A') (A') (A') (A') (A") (A') (A') (A") (A')
                 (A") (A') (A') (A') (A") (A") (A') (A') (A')
 Beta  Orbitals:
       Occupied  (A') (A') (A') (A')
       Virtual   (A") (A') (A') (A') (A') (A') (A") (A') (A') (A")
                 (A') (A") (A') (A') (A') (A") (A") (A') (A') (A')
 The electronic state of the initial guess is 2-A".
 Initial guess <Sx>= 0.0000 <Sy>= 0.0000 <Sz>= 0.5000 <S**2>= 0.7500 S= 0.5000
 Leave Link  401 at Thu Feb  3 15:55:52 2022, MaxMem=  6442450944 cpu:               2.2 elap:               0.2
 (Enter /mnt/gpfs3_amd/share/apps/amd/gaussian/g16-A.03/g16/l502.exe)
 Keep R1 and R2 ints in memory in symmetry-blocked form, NReq=13884302.
 FoFCou: FMM=F IPFlag=           0 FMFlag=           0 FMFlg1=           0
         NFxFlg=           0 DoJE=F BraDBF=F KetDBF=F FulRan=T
         wScrn=  0.000000 ICntrl=       600 IOpCl=  0 I1Cent=           0 NGrid=           0
         NMat0=    1 NMatS0=    300 NMatT0=    0 NMatD0=    1 NMtDS0=    0 NMtDT0=    0
 Petite list used in FoFCou.
 UHF open shell SCF:
 Using DIIS extrapolation, IDIIS=  1040.
 NGot=  6442450944 LenX=  6442399050 LenY=  6442397984
 Requested convergence on RMS density matrix=1.00D-08 within 128 cycles.
 Requested convergence on MAX density matrix=1.00D-06.
 Requested convergence on             energy=1.00D-06.
 No special actions if energy rises.

 Cycle   1  Pass 1  IDiag  1:
 Inv3:  Mode=1 IEnd=      480000.
 Iteration    1 A*A^-1 deviation from unit magnitude is 2.22D-15 for    198.
 Iteration    1 A*A^-1 deviation from orthogonality  is 1.50D-15 for    305     97.
 Iteration    1 A^-1*A deviation from unit magnitude is 2.00D-15 for    198.
 Iteration    1 A^-1*A deviation from orthogonality  is 8.77D-16 for    131     98.
 E= -75.9551038700632    
 DIIS: error= 5.26D-02 at cycle   1 NSaved=   1.
 NSaved= 1 IEnMin= 1 EnMin= -75.9551038700632     IErMin= 1 ErrMin= 5.26D-02
 ErrMax= 5.26D-02  0.00D+00 EMaxC= 1.00D-01 BMatC= 2.04D-01 BMatP= 2.04D-01
 IDIUse=3 WtCom= 4.74D-01 WtEn= 5.26D-01
 Coeff-Com:  0.100D+01
 Coeff-En:   0.100D+01
 Coeff:      0.100D+01
 Gap=     0.901 Goal=   None    Shift=    0.000
 Gap=     0.500 Goal=   None    Shift=    0.000
 GapD=    0.500 DampG=2.000 DampE=0.500 DampFc=1.0000 IDamp=-1.
 RMSDP=1.02D-02 MaxDP=1.17D-01              OVMax= 9.75D-02

 Cycle   2  Pass 1  IDiag  1:
 E= -75.9882264166433     Delta-E=       -0.033122546580 Rises=F Damp=F
 DIIS: error= 2.75D-02 at cycle   2 NSaved=   2.
 NSaved= 2 IEnMin= 2 EnMin= -75.9882264166433     IErMin= 2 ErrMin= 2.75D-02
 ErrMax= 2.75D-02  0.00D+00 EMaxC= 1.00D-01 BMatC= 7.74D-02 BMatP= 2.04D-01
 IDIUse=3 WtCom= 7.25D-01 WtEn= 2.75D-01
 Coeff-Com:  0.367D+00 0.633D+00
 Coeff-En:   0.000D+00 0.100D+01
 Coeff:      0.266D+00 0.734D+00
 Gap=     0.812 Goal=   None    Shift=    0.000
 Gap=     0.523 Goal=   None    Shift=    0.000
 RMSDP=4.28D-03 MaxDP=5.26D-02 DE=-3.31D-02 OVMax= 4.13D-02

 Cycle   3  Pass 1  IDiag  1:
 E= -76.0012340900350     Delta-E=       -0.013007673392 Rises=F Damp=F
 DIIS: error= 6.38D-03 at cycle   3 NSaved=   3.
 NSaved= 3 IEnMin= 3 EnMin= -76.0012340900350     IErMin= 3 ErrMin= 6.38D-03
 ErrMax= 6.38D-03  0.00D+00 EMaxC= 1.00D-01 BMatC= 3.23D-03 BMatP= 7.74D-02
 IDIUse=3 WtCom= 9.36D-01 WtEn= 6.38D-02
 Coeff-Com: -0.555D-01 0.105D+00 0.951D+00
 Coeff-En:   0.000D+00 0.000D+00 0.100D+01
 Coeff:     -0.519D-01 0.982D-01 0.954D+00
 Gap=     0.830 Goal=   None    Shift=    0.000
 Gap=     0.523 Goal=   None    Shift=    0.000
 RMSDP=9.35D-04 MaxDP=1.20D-02 DE=-1.30D-02 OVMax= 1.01D-02

 Cycle   4  Pass 1  IDiag  1:
 E= -76.0019360062333     Delta-E=       -0.000701916198 Rises=F Damp=F
 DIIS: error= 8.43D-04 at cycle   4 NSaved=   4.
 NSaved= 4 IEnMin= 4 EnMin= -76.0019360062333     IErMin= 4 ErrMin= 8.43D-04
 ErrMax= 8.43D-04  0.00D+00 EMaxC= 1.00D-01 BMatC= 4.38D-05 BMatP= 3.23D-03
 IDIUse=3 WtCom= 9.92D-01 WtEn= 8.43D-03
 Coeff-Com: -0.541D-02-0.289D-01-0.417D-01 0.108D+01
 Coeff-En:   0.000D+00 0.000D+00 0.000D+00 0.100D+01
 Coeff:     -0.536D-02-0.286D-01-0.413D-01 0.108D+01
 Gap=     0.829 Goal=   None    Shift=    0.000
 Gap=     0.523 Goal=   None    Shift=    0.000
 RMSDP=1.53D-04 MaxDP=2.10D-03 DE=-7.02D-04 OVMax= 1.99D-03

 Cycle   5  Pass 1  IDiag  1:
 E= -76.0019545027614     Delta-E=       -0.000018496528 Rises=F Damp=F
 DIIS: error= 2.60D-04 at cycle   5 NSaved=   5.
 NSaved= 5 IEnMin= 5 EnMin= -76.0019545027614     IErMin= 5 ErrMin= 2.60D-04
 ErrMax= 2.60D-04  0.00D+00 EMaxC= 1.00D-01 BMatC= 4.78D-06 BMatP= 4.38D-05
 IDIUse=3 WtCom= 9.97D-01 WtEn= 2.60D-03
 Coeff-Com:  0.602D-02 0.483D-02-0.523D-01-0.459D+00 0.150D+01
 Coeff-En:   0.000D+00 0.000D+00 0.000D+00 0.000D+00 0.100D+01
 Coeff:      0.600D-02 0.481D-02-0.521D-01-0.458D+00 0.150D+01
 Gap=     0.829 Goal=   None    Shift=    0.000
 Gap=     0.523 Goal=   None    Shift=    0.000
 RMSDP=8.07D-05 MaxDP=8.51D-04 DE=-1.85D-05 OVMax= 1.07D-03

 Cycle   6  Pass 1  IDiag  1:
 E= -76.0019579964537     Delta-E=       -0.000003493692 Rises=F Damp=F
 DIIS: error= 6.31D-05 at cycle   6 NSaved=   6.
 NSaved= 6 IEnMin= 6 EnMin= -76.0019579964537     IErMin= 6 ErrMin= 6.31D-05
 ErrMax= 6.31D-05  0.00D+00 EMaxC= 1.00D-01 BMatC= 2.40D-07 BMatP= 4.78D-06
 IDIUse=1 WtCom= 1.00D+00 WtEn= 0.00D+00
 Coeff-Com: -0.177D-02-0.165D-03 0.215D-01 0.112D+00-0.591D+00 0.146D+01
 Coeff:     -0.177D-02-0.165D-03 0.215D-01 0.112D+00-0.591D+00 0.146D+01
 Gap=     0.830 Goal=   None    Shift=    0.000
 Gap=     0.523 Goal=   None    Shift=    0.000
 RMSDP=2.24D-05 MaxDP=2.13D-04 DE=-3.49D-06 OVMax= 3.02D-04

 Cycle   7  Pass 1  IDiag  1:
 E= -76.0019582021321     Delta-E=       -0.000000205678 Rises=F Damp=F
 DIIS: error= 1.22D-05 at cycle   7 NSaved=   7.
 NSaved= 7 IEnMin= 7 EnMin= -76.0019582021321     IErMin= 7 ErrMin= 1.22D-05
 ErrMax= 1.22D-05  0.00D+00 EMaxC= 1.00D-01 BMatC= 6.42D-09 BMatP= 2.40D-07
 IDIUse=1 WtCom= 1.00D+00 WtEn= 0.00D+00
 Coeff-Com:  0.311D-03 0.111D-03-0.439D-02-0.248D-01 0.138D+00-0.461D+00
 Coeff-Com:  0.135D+01
 Coeff:      0.311D-03 0.111D-03-0.439D-02-0.248D-01 0.138D+00-0.461D+00
 Coeff:      0.135D+01
 Gap=     0.830 Goal=   None    Shift=    0.000
 Gap=     0.523 Goal=   None    Shift=    0.000
 RMSDP=3.90D-06 MaxDP=2.82D-05 DE=-2.06D-07 OVMax= 7.14D-05

 Cycle   8  Pass 1  IDiag  1:
 E= -76.0019582072616     Delta-E=       -0.000000005129 Rises=F Damp=F
 DIIS: error= 1.95D-06 at cycle   8 NSaved=   8.
 NSaved= 8 IEnMin= 8 EnMin= -76.0019582072616     IErMin= 8 ErrMin= 1.95D-06
 ErrMax= 1.95D-06  0.00D+00 EMaxC= 1.00D-01 BMatC= 1.33D-10 BMatP= 6.42D-09
 IDIUse=1 WtCom= 1.00D+00 WtEn= 0.00D+00
 Coeff-Com: -0.451D-04-0.219D-04 0.783D-03 0.430D-02-0.257D-01 0.994D-01
 Coeff-Com: -0.398D+00 0.132D+01
 Coeff:     -0.451D-04-0.219D-04 0.783D-03 0.430D-02-0.257D-01 0.994D-01
 Coeff:     -0.398D+00 0.132D+01
 Gap=     0.830 Goal=   None    Shift=    0.000
 Gap=     0.523 Goal=   None    Shift=    0.000
 RMSDP=5.07D-07 MaxDP=4.14D-06 DE=-5.13D-09 OVMax= 1.07D-05

 Cycle   9  Pass 1  IDiag  1:
 E= -76.0019582073583     Delta-E=       -0.000000000097 Rises=F Damp=F
 DIIS: error= 2.34D-07 at cycle   9 NSaved=   9.
 NSaved= 9 IEnMin= 9 EnMin= -76.0019582073583     IErMin= 9 ErrMin= 2.34D-07
 ErrMax= 2.34D-07  0.00D+00 EMaxC= 1.00D-01 BMatC= 3.39D-12 BMatP= 1.33D-10
 IDIUse=1 WtCom= 1.00D+00 WtEn= 0.00D+00
 Coeff-Com:  0.531D-05 0.434D-05-0.130D-03-0.691D-03 0.444D-02-0.191D-01
 Coeff-Com:  0.903D-01-0.415D+00 0.134D+01
 Coeff:      0.531D-05 0.434D-05-0.130D-03-0.691D-03 0.444D-02-0.191D-01
 Coeff:      0.903D-01-0.415D+00 0.134D+01
 Gap=     0.830 Goal=   None    Shift=    0.000
 Gap=     0.523 Goal=   None    Shift=    0.000
 RMSDP=6.99D-08 MaxDP=6.45D-07 DE=-9.67D-11 OVMax= 1.15D-06

 Cycle  10  Pass 1  IDiag  1:
 E= -76.0019582073605     Delta-E=       -0.000000000002 Rises=F Damp=F
 DIIS: error= 3.30D-08 at cycle  10 NSaved=  10.
 NSaved=10 IEnMin=10 EnMin= -76.0019582073605     IErMin=10 ErrMin= 3.30D-08
 ErrMax= 3.30D-08  0.00D+00 EMaxC= 1.00D-01 BMatC= 6.01D-14 BMatP= 3.39D-12
 IDIUse=1 WtCom= 1.00D+00 WtEn= 0.00D+00
 Coeff-Com: -0.934D-06-0.119D-05 0.298D-04 0.154D-03-0.103D-02 0.460D-02
 Coeff-Com: -0.228D-01 0.114D+00-0.436D+00 0.134D+01
 Coeff:     -0.934D-06-0.119D-05 0.298D-04 0.154D-03-0.103D-02 0.460D-02
 Coeff:     -0.228D-01 0.114D+00-0.436D+00 0.134D+01
 Gap=     0.830 Goal=   None    Shift=    0.000
 Gap=     0.523 Goal=   None    Shift=    0.000
 RMSDP=8.70D-09 MaxDP=1.16D-07 DE=-2.20D-12 OVMax= 1.55D-07

 Error on total polarization charges = -0.00035
 SCF Done:  E(ULC-wHPBE) =  -76.0019582074     A.U. after   10 cycles
            NFock= 10  Conv=0.87D-08     -V/T= 2.0084
 <Sx>= 0.0000 <Sy>= 0.0000 <Sz>= 0.5000 <S**2>= 0.7525 S= 0.5012
 <L.S>= 0.000000000000E+00
 KE= 7.536721072298D+01 PE=-1.927470001384D+02 EE= 3.262161242034D+01
 Annihilation of the first spin contaminant:
 S**2 before annihilation     0.7525,   after     0.7500
 Leave Link  502 at Thu Feb  3 15:55:55 2022, MaxMem=  6442450944 cpu:              34.2 elap:               2.4
 (Enter /mnt/gpfs3_amd/share/apps/amd/gaussian/g16-A.03/g16/l601.exe)
 Copying SCF densities to generalized density rwf, IOpCl= 1 IROHF=0.

 **********************************************************************

            Population analysis using the SCF density.

 **********************************************************************

 Orbital symmetries:
 Alpha Orbitals:
       Occupied  (A') (A') (A') (A") (A')
       Virtual   (A') (A') (A') (A') (A") (A') (A') (A') (A") (A')
                 (A") (A') (A') (A') (A") (A") (A') (A') (A')
 Beta  Orbitals:
       Occupied  (A') (A') (A') (A')
       Virtual   (A") (A') (A') (A') (A') (A') (A") (A') (A') (A")
                 (A') (A") (A') (A') (A') (A") (A") (A') (A') (A')
 The electronic state is 2-A".
 Alpha  occ. eigenvalues --  -19.33387  -1.41724  -0.89745  -0.78269  -0.75785
 Alpha virt. eigenvalues --    0.07170   0.14547   0.55545   0.56486   0.83192
 Alpha virt. eigenvalues --    0.87578   0.98179   1.04385   1.29102   1.46066
 Alpha virt. eigenvalues --    1.54304   1.71877   2.11015   2.11407   2.74532
 Alpha virt. eigenvalues --    2.83831   2.99017   3.39127   3.66050
  Beta  occ. eigenvalues --  -19.30814  -1.34197  -0.87600  -0.72819
  Beta virt. eigenvalues --   -0.20503   0.08135   0.15159   0.55544   0.57448
  Beta virt. eigenvalues --    0.89272   0.92673   0.99503   1.07598   1.31219
  Beta virt. eigenvalues --    1.47499   1.56425   1.71659   2.11680   2.16296
  Beta virt. eigenvalues --    2.82530   2.91825   3.02509   3.44956   3.67499
          Condensed to atoms (all electrons):
               1          2          3
     1  O    7.049103   0.322653   0.322622
     2  H    0.322653   0.337501  -0.007303
     3  H    0.322622  -0.007303   0.337451
          Atomic-Atomic Spin Densities.
               1          2          3
     1  O    1.060561  -0.002718  -0.002722
     2  H   -0.002718  -0.025658   0.000819
     3  H   -0.002722   0.000819  -0.025660
 Mulliken charges and spin densities:
               1          2
     1  O    0.305622   1.055121
     2  H    0.347148  -0.027557
     3  H    0.347230  -0.027563
 Sum of Mulliken charges =   1.00000   1.00000
 Mulliken charges and spin densities with hydrogens summed into heavy atoms:
               1          2
     1  O    1.000000   1.000000
 Electronic spatial extent (au):  <R**2>=             14.6787
 Charge=              1.0000 electrons
 Dipole moment (field-independent basis, Debye):
    X=             -0.0001    Y=             -2.3686    Z=              0.0000  Tot=              2.3686
 Quadrupole moment (field-independent basis, Debye-Ang):
   XX=             -1.5623   YY=             -4.4075   ZZ=             -4.7279
   XY=              0.0005   XZ=              0.0000   YZ=              0.0000
 Traceless Quadrupole moment (field-independent basis, Debye-Ang):
   XX=              2.0036   YY=             -0.8416   ZZ=             -1.1620
   XY=              0.0005   XZ=              0.0000   YZ=              0.0000
 Octapole moment (field-independent basis, Debye-Ang**2):
  XXX=             -0.0001  YYY=             -1.5443  ZZZ=              0.0000  XYY=             -0.0004
  XXY=             -2.0782  XXZ=              0.0000  XZZ=              0.0000  YZZ=             -0.2580
  YYZ=              0.0000  XYZ=              0.0000
 Hexadecapole moment (field-independent basis, Debye-Ang**3):
 XXXX=             -2.2682 YYYY=             -4.2393 ZZZZ=             -2.5911 XXXY=              0.0003
 XXXZ=              0.0000 YYYX=              0.0002 YYYZ=              0.0000 ZZZX=              0.0000
 ZZZY=              0.0000 XXYY=             -0.6590 XXZZ=             -1.3140 YYZZ=             -1.1829
 XXYZ=              0.0000 YYXZ=              0.0000 ZZXY=             -0.0000
 N-N= 8.756218787770D+00 E-N=-1.927469999686D+02  KE= 7.536721072298D+01
 Symmetry A'   KE= 7.264550001097D+01
 Symmetry A"   KE= 2.721710712011D+00
 Symmetry A'   SP=-6.369633553244D-15
 Symmetry A"   SP= 1.000000000000D+00
                          Isotropic Fermi Contact Couplings
        Atom                 a.u.       MegaHertz       Gauss      10(-4) cm-1
     1  O(17)              0.30055    -182.19091     -65.01025     -60.77235
     2  H(1)              -0.01393     -62.27042     -22.21964     -20.77118
     3  H(1)              -0.01393     -62.27324     -22.22064     -20.77212
 --------------------------------------------------------
       Center         ----  Spin Dipole Couplings  ----
                      3XX-RR        3YY-RR        3ZZ-RR
 --------------------------------------------------------
     1   Atom       -1.977822     -2.035939      4.013761
     2   Atom        0.077340     -0.030922     -0.046418
     3   Atom        0.077289     -0.030871     -0.046418
 --------------------------------------------------------
                        XY            XZ            YZ
 --------------------------------------------------------
     1   Atom        0.000021      0.000000      0.000000
     2   Atom       -0.134118      0.000000      0.000000
     3   Atom        0.134104      0.000000      0.000000
 --------------------------------------------------------


 ---------------------------------------------------------------------------------
              Anisotropic Spin Dipole Couplings in Principal Axis System
 ---------------------------------------------------------------------------------

       Atom             a.u.   MegaHertz   Gauss  10(-4) cm-1        Axes

              Baa    -2.0359   147.319    52.567    49.140 -0.0004  1.0000  0.0000
     1 O(17)  Bbb    -1.9778   143.114    51.067    47.738  1.0000  0.0004  0.0000
              Bcc     4.0138  -290.433  -103.634   -96.878  0.0000  0.0000  1.0000
 
              Baa    -0.1214   -64.784   -23.117   -21.610  0.5593  0.8289  0.0000
     2 H(1)   Bbb    -0.0464   -24.766    -8.837    -8.261  0.0000  0.0000  1.0000
              Bcc     0.1678    89.551    31.954    29.871  0.8289 -0.5593 -0.0000
 
              Baa    -0.1214   -64.767   -23.111   -21.604 -0.5595  0.8289 -0.0000
     3 H(1)   Bbb    -0.0464   -24.766    -8.837    -8.261  0.0000  0.0000  1.0000
              Bcc     0.1678    89.534    31.948    29.865  0.8289  0.5595  0.0000
 

 ---------------------------------------------------------------------------------

 No NMR shielding tensors so no spin-rotation constants.
 Leave Link  601 at Thu Feb  3 15:55:55 2022, MaxMem=  6442450944 cpu:               3.3 elap:               0.2
 (Enter /mnt/gpfs3_amd/share/apps/amd/gaussian/g16-A.03/g16/l9999.exe)

 Test job not archived.
 1\1\GINC-ROME052\SP\ULC-wHPBE\def2SVP\H2O1(1+,2)\RDU230\03-Feb-2022\0\
 \#P LC-wHPBE/Def2SVP SCRF=(PCM,Solvent=acetonitrile) iop(3/107=0499400
 000, 3/108=0499400000)\\H2 O1\\1,2\O,0,0.,0.114876,0.\H,0,0.823221,-0.
 459416,0.\H,0,-0.823221,-0.459596,0.\\Version=AM64L-G16RevA.03\State=2
 -A"\HF=-76.0019582\S2=0.752455\S2-1=0.\S2A=0.750003\RMSD=8.700e-09\Dip
 ole=-0.000029,-0.9318631,0.\Quadrupole=1.4896414,-0.6256905,-0.8639509
 ,0.0003543,0.,0.\PG=CS [SG(H2O1)]\\@


 TIME IS IN FACT THE HERO OF THE PLOT. THE TIME
 WITH WHICH WE HAVE TO DEAL IS OF THE ORDER OF TWO
 BILLION YEARS...GIVEN SO MUCH TIME, THE "IMPOSSIBLE"
 BECOMES POSSIBLE, THE POSSIBLE PROBABLE, THE PROBABLE
 VIRTUALLY CERTAIN.  ONE HAS ONLY TO WAIT, TIME
 ITSELF PERFORMS THE MIRACLES.
 "ORIGIN OF LIFE" LECTURES, GEORGE WALD, 1954
 Job cpu time:       0 days  0 hours  0 minutes 47.6 seconds.
 Elapsed time:       0 days  0 hours  0 minutes  3.3 seconds.
 File lengths (MBytes):  RWF=    136 Int=      0 D2E=      0 Chk=     16 Scr=     16
 Normal termination of Gaussian 16 at Thu Feb  3 15:55:55 2022.
