 Entering Gaussian System, Link 0=/mnt/gpfs3_amd/share/apps/amd/gaussian/g16-A.03/g16/g16
 Input=/scratch/rdu230/d3tales/high_throughput/runfiles//05XICU/gaussian/solv_acetonitrile/energy/groundState/energy_groundState.com
 Output=/scratch/rdu230/d3tales/high_throughput/runfiles//05XICU/gaussian/solv_acetonitrile/energy/groundState/energy_groundState.log
 Initial command:
 /mnt/gpfs3_amd/share/apps/amd/gaussian/g16-A.03/g16/l1.exe "/scratch/rdu230/d3tales/high_throughput/runfiles/05XICU/gaussian/solv_acetonitrile/energy/groundState/Gau-3824290.inp" -scrdir="/scratch/rdu230/d3tales/high_throughput/runfiles/05XICU/gaussian/solv_acetonitrile/energy/groundState/"
 Entering Link 1 = /mnt/gpfs3_amd/share/apps/amd/gaussian/g16-A.03/g16/l1.exe PID=   3824291.
  
 Copyright (c) 1988,1990,1992,1993,1995,1998,2003,2009,2016,
            Gaussian, Inc.  All Rights Reserved.
  
 This is part of the Gaussian(R) 16 program.  It is based on
 the Gaussian(R) 09 system (copyright 2009, Gaussian, Inc.),
 the Gaussian(R) 03 system (copyright 2003, Gaussian, Inc.),
 the Gaussian(R) 98 system (copyright 1998, Gaussian, Inc.),
 the Gaussian(R) 94 system (copyright 1995, Gaussian, Inc.),
 the Gaussian 92(TM) system (copyright 1992, Gaussian, Inc.),
 the Gaussian 90(TM) system (copyright 1990, Gaussian, Inc.),
 the Gaussian 88(TM) system (copyright 1988, Gaussian, Inc.),
 the Gaussian 86(TM) system (copyright 1986, Carnegie Mellon
 University), and the Gaussian 82(TM) system (copyright 1983,
 Carnegie Mellon University). Gaussian is a federally registered
 trademark of Gaussian, Inc.
  
 This software contains proprietary and confidential information,
 including trade secrets, belonging to Gaussian, Inc.
  
 This software is provided under written license and may be
 used, copied, transmitted, or stored only in accord with that
 written license.
  
 The following legend is applicable only to US Government
 contracts under FAR:
  
                    RESTRICTED RIGHTS LEGEND
  
 Use, reproduction and disclosure by the US Government is
 subject to restrictions as set forth in subparagraphs (a)
 and (c) of the Commercial Computer Software - Restricted
 Rights clause in FAR 52.227-19.
  
 Gaussian, Inc.
 340 Quinnipiac St., Bldg. 40, Wallingford CT 06492
  
  
 ---------------------------------------------------------------
 Warning -- This program may not be used in any manner that
 competes with the business of Gaussian, Inc. or will provide
 assistance to any competitor of Gaussian, Inc.  The licensee
 of this program is prohibited from giving any competitor of
 Gaussian, Inc. access to this program.  By using this program,
 the user acknowledges that Gaussian, Inc. is engaged in the
 business of creating and licensing software in the field of
 computational chemistry and represents and warrants to the
 licensee that it is not a competitor of Gaussian, Inc. and that
 it will not use this program in any manner prohibited above.
 ---------------------------------------------------------------
  

 Cite this work as:
 Gaussian 16, Revision A.03,
 M. J. Frisch, G. W. Trucks, H. B. Schlegel, G. E. Scuseria, 
 M. A. Robb, J. R. Cheeseman, G. Scalmani, V. Barone, 
 G. A. Petersson, H. Nakatsuji, X. Li, M. Caricato, A. V. Marenich, 
 J. Bloino, B. G. Janesko, R. Gomperts, B. Mennucci, H. P. Hratchian, 
 J. V. Ortiz, A. F. Izmaylov, J. L. Sonnenberg, D. Williams-Young, 
 F. Ding, F. Lipparini, F. Egidi, J. Goings, B. Peng, A. Petrone, 
 T. Henderson, D. Ranasinghe, V. G. Zakrzewski, J. Gao, N. Rega, 
 G. Zheng, W. Liang, M. Hada, M. Ehara, K. Toyota, R. Fukuda, 
 J. Hasegawa, M. Ishida, T. Nakajima, Y. Honda, O. Kitao, H. Nakai, 
 T. Vreven, K. Throssell, J. A. Montgomery, Jr., J. E. Peralta, 
 F. Ogliaro, M. J. Bearpark, J. J. Heyd, E. N. Brothers, K. N. Kudin, 
 V. N. Staroverov, T. A. Keith, R. Kobayashi, J. Normand, 
 K. Raghavachari, A. P. Rendell, J. C. Burant, S. S. Iyengar, 
 J. Tomasi, M. Cossi, J. M. Millam, M. Klene, C. Adamo, R. Cammi, 
 J. W. Ochterski, R. L. Martin, K. Morokuma, O. Farkas, 
 J. B. Foresman, and D. J. Fox, Gaussian, Inc., Wallingford CT, 2016.
 
 ******************************************
 Gaussian 16:  AM64L-G16RevA.03 25-Dec-2016
                29-Aug-2022 
 ******************************************
 %chk=/scratch/rdu230/d3tales/high_throughput/runfiles//05XICU/gaussian/solv_acet
 onitrile/energy/groundState/energy_groundState.chk
 %mem=48GB
 %nprocshared=16
 Will use up to   16 processors via shared memory.
 ----------------------------------------------------------------------
 #P LC-wHPBE/Def2SVP SCRF=(PCM,Solvent=acetonitrile) iop(3/107=04994000
 00, 3/108=0499400000)
 ----------------------------------------------------------------------
 1/38=1,172=1/1;
 2/12=2,17=6,18=5,40=1/2;
 3/5=43,7=101,11=2,25=1,30=1,70=2201,72=2,74=-71,107=499400000,108=499400000/1,2,3;
 4//1;
 5/5=2,38=5,53=2/2;
 6/7=2,8=2,9=2,10=2,28=1/1;
 99/5=1,9=1/99;
 Leave Link    1 at Mon Aug 29 16:34:14 2022, MaxMem=  6442450944 cpu:               4.1 elap:               0.3
 (Enter /mnt/gpfs3_amd/share/apps/amd/gaussian/g16-A.03/g16/l101.exe)
 -----
 H2 O1
 -----
 Symbolic Z-matrix:
 Charge =  0 Multiplicity = 1
 O                     0.        0.11765   0. 
 H                     0.75636  -0.47054   0. 
 H                    -0.75636  -0.47067   0. 
 
 ITRead=  0  0  0
 MicOpt= -1 -1 -1
 NAtoms=      3 NQM=        3 NQMF=       0 NMMI=      0 NMMIF=      0
                NMic=       0 NMicF=      0.
                    Isotopes and Nuclear Properties:
 (Nuclear quadrupole moments (NQMom) in fm**2, nuclear magnetic moments (NMagM)
  in nuclear magnetons)

  Atom         1           2           3
 IAtWgt=          16           1           1
 AtmWgt=  15.9949146   1.0078250   1.0078250
 NucSpn=           0           1           1
 AtZEff=  -0.0000000  -0.0000000  -0.0000000
 NQMom=    0.0000000   0.0000000   0.0000000
 NMagM=    0.0000000   2.7928460   2.7928460
 AtZNuc=   8.0000000   1.0000000   1.0000000
 Leave Link  101 at Mon Aug 29 16:34:15 2022, MaxMem=  6442450944 cpu:               1.0 elap:               0.1
 (Enter /mnt/gpfs3_amd/share/apps/amd/gaussian/g16-A.03/g16/l202.exe)
                          Input orientation:                          
 ---------------------------------------------------------------------
 Center     Atomic      Atomic             Coordinates (Angstroms)
 Number     Number       Type             X           Y           Z
 ---------------------------------------------------------------------
      1          8           0        0.000000    0.117652    0.000000
      2          1           0        0.756359   -0.470544    0.000000
      3          1           0       -0.756359   -0.470672    0.000000
 ---------------------------------------------------------------------
                    Distance matrix (angstroms):
                    1          2          3
     1  O    0.000000
     2  H    0.958151   0.000000
     3  H    0.958230   1.512718   0.000000
 Stoichiometry    H2O
 Framework group  CS[SG(H2O)]
 Deg. of freedom     3
 Full point group                 CS      NOp   2
 Largest Abelian subgroup         CS      NOp   2
 Largest concise Abelian subgroup C1      NOp   1
                         Standard orientation:                         
 ---------------------------------------------------------------------
 Center     Atomic      Atomic             Coordinates (Angstroms)
 Number     Number       Type             X           Y           Z
 ---------------------------------------------------------------------
      1          8           0        0.000000    0.117652    0.000000
      2          1           0        0.756359   -0.470544    0.000000
      3          1           0       -0.756359   -0.470672   -0.000000
 ---------------------------------------------------------------------
 Rotational constants (GHZ):         815.8472120         438.2743922         285.1118582
 Leave Link  202 at Mon Aug 29 16:34:15 2022, MaxMem=  6442450944 cpu:               0.0 elap:               0.0
 (Enter /mnt/gpfs3_amd/share/apps/amd/gaussian/g16-A.03/g16/l301.exe)
 Standard basis: def2SVP (5D, 7F)
 Ernie: Thresh=  0.10000D-02 Tol=  0.10000D-05 Strict=F.
 There are    19 symmetry adapted cartesian basis functions of A'  symmetry.
 There are     6 symmetry adapted cartesian basis functions of A"  symmetry.
 There are    18 symmetry adapted basis functions of A'  symmetry.
 There are     6 symmetry adapted basis functions of A"  symmetry.
    24 basis functions,    39 primitive gaussians,    25 cartesian basis functions
     5 alpha electrons        5 beta electrons
       nuclear repulsion energy         9.1860957510 Hartrees.
 IExCor=33909 DFT=T Ex+Corr=LC-wHPBE ExCW=0 ScaHFX=  1.000000
 ScaDFX=  1.000000  1.000000  1.000000  1.000000 ScalE2=  1.000000  1.000000
 IRadAn=      5 IRanWt=     -1 IRanGd=            0 ICorTp=0 IEmpDi=  4
 HFx  wShort=  0.000000 wLong=  0.499400 cFull=  0.000000 cShort=  0.000000 cLong=  1.000000
 DFx  wShort=  0.000000 wLong=  0.499400 cFull=  0.000000 cShort=  1.000000 cLong=  0.000000
 NAtoms=    3 NActive=    3 NUniq=    3 SFac= 1.00D+00 NAtFMM=   60 NAOKFM=F Big=F
 Integral buffers will be    131072 words long.
 Raffenetti 2 integral format.
 Two-electron integral symmetry is turned on.
 ------------------------------------------------------------------------------
 Polarizable Continuum Model (PCM)
 =================================
 Model                : PCM.
 Atomic radii         : UFF (Universal Force Field).
 Polarization charges : Total charges.
 Charge compensation  : None.
 Solution method      : On-the-fly selection.
 Cavity type          : Scaled VdW (van der Waals Surface) (Alpha=1.100).
 Cavity algorithm     : GePol (No added spheres)
                        Default sphere list used, NSphG=    3.
                        Lebedev-Laikov grids with approx.  5.0 points / Ang**2.
                        Smoothing algorithm: York/Karplus (Gamma=1.0000).
                        Polarization charges: spherical gaussians, with
                                              point-specific exponents (IZeta= 3).
                        Self-potential: point-specific (ISelfS= 7).
                        Self-field    : sphere-specific E.n sum rule (ISelfD= 2).
 Solvent              : Acetonitrile, Eps=  35.688000 Eps(inf)=   1.806874
 ------------------------------------------------------------------------------
 Spheres list:
 ISph  on   Nord     Re0    Alpha      Xe            Ye            Ze
    1   O      1    1.7500  1.100      0.000000      0.117652      0.000000
    2   H      2    1.4430  1.100      0.756359     -0.470544      0.000000
    3   H      3    1.4430  1.100     -0.756359     -0.470672     -0.000000
 ------------------------------------------------------------------------------
 GePol: Number of generator spheres                  =       3
 GePol: Total number of spheres                      =       3
 GePol: Number of exposed spheres                    =       3 (100.00%)
 GePol: Number of points                             =     392
 GePol: Average weight of points                     =       0.14
 GePol: Minimum weight of points                     =   0.85D-06
 GePol: Maximum weight of points                     =    0.20212
 GePol: Number of points with low weight             =      12
 GePol: Fraction of low-weight points (<1% of avg)   =       3.06%
 GePol: Cavity surface area                          =     55.478 Ang**2
 GePol: Cavity volume                                =     37.351 Ang**3
 Leave Link  301 at Mon Aug 29 16:34:15 2022, MaxMem=  6442450944 cpu:               0.5 elap:               0.0
 (Enter /mnt/gpfs3_amd/share/apps/amd/gaussian/g16-A.03/g16/l302.exe)
 NPDir=0 NMtPBC=     1 NCelOv=     1 NCel=       1 NClECP=     1 NCelD=      1
         NCelK=      1 NCelE2=     1 NClLst=     1 CellRange=     0.0.
 One-electron integrals computed using PRISM.
 One-electron integral symmetry used in STVInt
   2 Symmetry operations used in ECPInt.
 ECPInt:  NShTT=      78 NPrTT=     272 LenC2=      79 LenP2D=     271.
 LDataN:  DoStor=T MaxTD1= 4 Len=   56
 NBasis=    24 RedAO= T EigKep=  3.75D-02  NBF=    18     6
 NBsUse=    24 1.00D-06 EigRej= -1.00D+00 NBFU=    18     6
 Precomputing XC quadrature grid using
 IXCGrd= 4 IRadAn=           5 IRanWt=          -1 IRanGd=           0 AccXCQ= 0.00D+00.
 Generated NRdTot=       0 NPtTot=           0 NUsed=           0 NTot=          32
 NSgBfM=    25    25    25    25    25 MxSgAt=     3 MxSgA2=     3.
 Leave Link  302 at Mon Aug 29 16:34:15 2022, MaxMem=  6442450944 cpu:               2.1 elap:               0.1
 (Enter /mnt/gpfs3_amd/share/apps/amd/gaussian/g16-A.03/g16/l303.exe)
 DipDrv:  MaxL=1.
 Leave Link  303 at Mon Aug 29 16:34:15 2022, MaxMem=  6442450944 cpu:               0.1 elap:               0.0
 (Enter /mnt/gpfs3_amd/share/apps/amd/gaussian/g16-A.03/g16/l401.exe)
 ExpMin= 1.22D-01 ExpMax= 2.27D+03 ExpMxC= 3.41D+02 IAcc=3 IRadAn=         5 AccDes= 0.00D+00
 Harris functional with IExCor=33909 and IRadAn=       5 diagonalized for initial guess.
 HarFok:  IExCor=33909 AccDes= 0.00D+00 IRadAn=         5 IDoV= 1 UseB2=F ITyADJ=14
 ICtDFT=  3500011 ScaDFX=  1.000000  1.000000  1.000000  1.000000
 FoFCou: FMM=F IPFlag=           0 FMFlag=      100000 FMFlg1=           0
         NFxFlg=           0 DoJE=T BraDBF=F KetDBF=T FulRan=T
         wScrn=  0.000000 ICntrl=       500 IOpCl=  0 I1Cent=   200000004 NGrid=           0
         NMat0=    1 NMatS0=      1 NMatT0=    0 NMatD0=    1 NMtDS0=    0 NMtDT0=    0
 Petite list used in FoFCou.
 Harris En= -73.9182716750164    
 JPrj=0 DoOrth=F DoCkMO=F.
 Initial guess orbital symmetries:
       Occupied  (A') (A') (A') (A') (A")
       Virtual   (A') (A') (A') (A') (A') (A") (A') (A') (A") (A')
                 (A") (A') (A') (A') (A") (A") (A') (A') (A')
 The electronic state of the initial guess is 1-A'.
 Leave Link  401 at Mon Aug 29 16:34:16 2022, MaxMem=  6442450944 cpu:               3.1 elap:               0.2
 (Enter /mnt/gpfs3_amd/share/apps/amd/gaussian/g16-A.03/g16/l502.exe)
 Keep R1 ints in memory in symmetry-blocked form, NReq=13884302.
 FoFCou: FMM=F IPFlag=           0 FMFlag=           0 FMFlg1=           0
         NFxFlg=           0 DoJE=F BraDBF=F KetDBF=F FulRan=T
         wScrn=  0.000000 ICntrl=       600 IOpCl=  0 I1Cent=           0 NGrid=           0
         NMat0=    1 NMatS0=    300 NMatT0=    0 NMatD0=    1 NMtDS0=    0 NMtDT0=    0
 Petite list used in FoFCou.
 Closed shell SCF:
 Using DIIS extrapolation, IDIIS=  1040.
 NGot=  6442450944 LenX=  6442423464 LenY=  6442422398
 Requested convergence on RMS density matrix=1.00D-08 within 128 cycles.
 Requested convergence on MAX density matrix=1.00D-06.
 Requested convergence on             energy=1.00D-06.
 No special actions if energy rises.

 Cycle   1  Pass 1  IDiag  1:
 Inv3:  Mode=1 IEnd=      460992.
 Iteration    1 A*A^-1 deviation from unit magnitude is 1.78D-15 for    170.
 Iteration    1 A*A^-1 deviation from orthogonality  is 9.99D-16 for    252     38.
 Iteration    1 A^-1*A deviation from unit magnitude is 1.78D-15 for    170.
 Iteration    1 A^-1*A deviation from orthogonality  is 8.34D-16 for    271     49.
 E= -76.3127398394701    
 DIIS: error= 3.09D-02 at cycle   1 NSaved=   1.
 NSaved= 1 IEnMin= 1 EnMin= -76.3127398394701     IErMin= 1 ErrMin= 3.09D-02
 ErrMax= 3.09D-02  0.00D+00 EMaxC= 1.00D-01 BMatC= 2.98D-02 BMatP= 2.98D-02
 IDIUse=3 WtCom= 6.91D-01 WtEn= 3.09D-01
 Coeff-Com:  0.100D+01
 Coeff-En:   0.100D+01
 Coeff:      0.100D+01
 Gap=     0.548 Goal=   None    Shift=    0.000
 GapD=    0.548 DampG=2.000 DampE=0.500 DampFc=1.0000 IDamp=-1.
 RMSDP=7.13D-03 MaxDP=6.76D-02              OVMax= 7.09D-02

 Cycle   2  Pass 1  IDiag  1:
 E= -76.3208849935964     Delta-E=       -0.008145154126 Rises=F Damp=F
 DIIS: error= 2.54D-02 at cycle   2 NSaved=   2.
 NSaved= 2 IEnMin= 2 EnMin= -76.3208849935964     IErMin= 2 ErrMin= 2.54D-02
 ErrMax= 2.54D-02  0.00D+00 EMaxC= 1.00D-01 BMatC= 1.96D-02 BMatP= 2.98D-02
 IDIUse=3 WtCom= 7.46D-01 WtEn= 2.54D-01
 Coeff-Com:  0.447D+00 0.553D+00
 Coeff-En:   0.359D+00 0.641D+00
 Coeff:      0.424D+00 0.576D+00
 Gap=     0.620 Goal=   None    Shift=    0.000
 RMSDP=3.61D-03 MaxDP=3.32D-02 DE=-8.15D-03 OVMax= 3.06D-02

 Cycle   3  Pass 1  IDiag  1:
 E= -76.3341613653350     Delta-E=       -0.013276371739 Rises=F Damp=F
 DIIS: error= 2.00D-03 at cycle   3 NSaved=   3.
 NSaved= 3 IEnMin= 3 EnMin= -76.3341613653350     IErMin= 3 ErrMin= 2.00D-03
 ErrMax= 2.00D-03  0.00D+00 EMaxC= 1.00D-01 BMatC= 8.29D-05 BMatP= 1.96D-02
 IDIUse=3 WtCom= 9.80D-01 WtEn= 2.00D-02
 Coeff-Com: -0.187D-01 0.348D-01 0.984D+00
 Coeff-En:   0.000D+00 0.000D+00 0.100D+01
 Coeff:     -0.183D-01 0.341D-01 0.984D+00
 Gap=     0.617 Goal=   None    Shift=    0.000
 RMSDP=2.28D-04 MaxDP=2.20D-03 DE=-1.33D-02 OVMax= 2.57D-03

 Cycle   4  Pass 1  IDiag  1:
 E= -76.3342287566804     Delta-E=       -0.000067391345 Rises=F Damp=F
 DIIS: error= 1.99D-04 at cycle   4 NSaved=   4.
 NSaved= 4 IEnMin= 4 EnMin= -76.3342287566804     IErMin= 4 ErrMin= 1.99D-04
 ErrMax= 1.99D-04  0.00D+00 EMaxC= 1.00D-01 BMatC= 7.45D-07 BMatP= 8.29D-05
 IDIUse=3 WtCom= 9.98D-01 WtEn= 1.99D-03
 Coeff-Com: -0.103D-01-0.132D-01 0.823D-02 0.102D+01
 Coeff-En:   0.000D+00 0.000D+00 0.000D+00 0.100D+01
 Coeff:     -0.103D-01-0.131D-01 0.821D-02 0.102D+01
 Gap=     0.618 Goal=   None    Shift=    0.000
 RMSDP=4.45D-05 MaxDP=3.04D-04 DE=-6.74D-05 OVMax= 4.12D-04

 Cycle   5  Pass 1  IDiag  1:
 E= -76.3342297543908     Delta-E=       -0.000000997710 Rises=F Damp=F
 DIIS: error= 2.65D-05 at cycle   5 NSaved=   5.
 NSaved= 5 IEnMin= 5 EnMin= -76.3342297543908     IErMin= 5 ErrMin= 2.65D-05
 ErrMax= 2.65D-05  0.00D+00 EMaxC= 1.00D-01 BMatC= 1.60D-08 BMatP= 7.45D-07
 IDIUse=1 WtCom= 1.00D+00 WtEn= 0.00D+00
 Coeff-Com:  0.873D-03 0.358D-03-0.174D-01-0.621D-01 0.108D+01
 Coeff:      0.873D-03 0.358D-03-0.174D-01-0.621D-01 0.108D+01
 Gap=     0.618 Goal=   None    Shift=    0.000
 RMSDP=9.77D-06 MaxDP=5.43D-05 DE=-9.98D-07 OVMax= 1.34D-04

 Cycle   6  Pass 1  IDiag  1:
 E= -76.3342297969052     Delta-E=       -0.000000042514 Rises=F Damp=F
 DIIS: error= 9.76D-06 at cycle   6 NSaved=   6.
 NSaved= 6 IEnMin= 6 EnMin= -76.3342297969052     IErMin= 6 ErrMin= 9.76D-06
 ErrMax= 9.76D-06  0.00D+00 EMaxC= 1.00D-01 BMatC= 1.11D-09 BMatP= 1.60D-08
 IDIUse=1 WtCom= 1.00D+00 WtEn= 0.00D+00
 Coeff-Com: -0.203D-03 0.880D-05 0.525D-02 0.170D-01-0.453D+00 0.143D+01
 Coeff:     -0.203D-03 0.880D-05 0.525D-02 0.170D-01-0.453D+00 0.143D+01
 Gap=     0.618 Goal=   None    Shift=    0.000
 RMSDP=4.04D-06 MaxDP=2.34D-05 DE=-4.25D-08 OVMax= 5.95D-05

 Cycle   7  Pass 1  IDiag  1:
 E= -76.3342298011706     Delta-E=       -0.000000004265 Rises=F Damp=F
 DIIS: error= 1.22D-06 at cycle   7 NSaved=   7.
 NSaved= 7 IEnMin= 7 EnMin= -76.3342298011706     IErMin= 7 ErrMin= 1.22D-06
 ErrMax= 1.22D-06  0.00D+00 EMaxC= 1.00D-01 BMatC= 2.45D-11 BMatP= 1.11D-09
 IDIUse=1 WtCom= 1.00D+00 WtEn= 0.00D+00
 Coeff-Com:  0.305D-04-0.354D-05-0.108D-02-0.151D-02 0.847D-01-0.371D+00
 Coeff-Com:  0.129D+01
 Coeff:      0.305D-04-0.354D-05-0.108D-02-0.151D-02 0.847D-01-0.371D+00
 Coeff:      0.129D+01
 Gap=     0.618 Goal=   None    Shift=    0.000
 RMSDP=6.00D-07 MaxDP=4.22D-06 DE=-4.27D-09 OVMax= 8.25D-06

 Cycle   8  Pass 1  IDiag  1:
 E= -76.3342298012457     Delta-E=       -0.000000000075 Rises=F Damp=F
 DIIS: error= 8.24D-08 at cycle   8 NSaved=   8.
 NSaved= 8 IEnMin= 8 EnMin= -76.3342298012457     IErMin= 8 ErrMin= 8.24D-08
 ErrMax= 8.24D-08  0.00D+00 EMaxC= 1.00D-01 BMatC= 1.46D-13 BMatP= 2.45D-11
 IDIUse=1 WtCom= 1.00D+00 WtEn= 0.00D+00
 Coeff-Com: -0.492D-05 0.162D-05 0.196D-03 0.108D-03-0.141D-01 0.676D-01
 Coeff-Com: -0.291D+00 0.124D+01
 Coeff:     -0.492D-05 0.162D-05 0.196D-03 0.108D-03-0.141D-01 0.676D-01
 Coeff:     -0.291D+00 0.124D+01
 Gap=     0.618 Goal=   None    Shift=    0.000
 RMSDP=4.29D-08 MaxDP=2.83D-07 DE=-7.51D-11 OVMax= 4.32D-07

 Cycle   9  Pass 1  IDiag  1:
 E= -76.3342298012458     Delta-E=       -0.000000000000 Rises=F Damp=F
 DIIS: error= 9.48D-09 at cycle   9 NSaved=   9.
 NSaved= 9 IEnMin= 9 EnMin= -76.3342298012458     IErMin= 9 ErrMin= 9.48D-09
 ErrMax= 9.48D-09  0.00D+00 EMaxC= 1.00D-01 BMatC= 1.66D-15 BMatP= 1.46D-13
 IDIUse=1 WtCom= 1.00D+00 WtEn= 0.00D+00
 Coeff-Com:  0.742D-06-0.149D-06-0.331D-04-0.636D-05 0.235D-02-0.117D-01
 Coeff-Com:  0.540D-01-0.277D+00 0.123D+01
 Coeff:      0.742D-06-0.149D-06-0.331D-04-0.636D-05 0.235D-02-0.117D-01
 Coeff:      0.540D-01-0.277D+00 0.123D+01
 Gap=     0.618 Goal=   None    Shift=    0.000
 RMSDP=2.82D-09 MaxDP=2.31D-08 DE=-7.11D-14 OVMax= 2.70D-08

 Error on total polarization charges =  0.00111
 SCF Done:  E(RLC-wHPBE) =  -76.3342298012     A.U. after    9 cycles
            NFock=  9  Conv=0.28D-08     -V/T= 2.0079
 KE= 7.573875983214D+01 PE=-1.989003565112D+02 EE= 3.764127112683D+01
 Leave Link  502 at Mon Aug 29 16:34:17 2022, MaxMem=  6442450944 cpu:              19.2 elap:               1.2
 (Enter /mnt/gpfs3_amd/share/apps/amd/gaussian/g16-A.03/g16/l601.exe)
 Copying SCF densities to generalized density rwf, IOpCl= 0 IROHF=0.

 **********************************************************************

            Population analysis using the SCF density.

 **********************************************************************

 Orbital symmetries:
       Occupied  (A') (A') (A') (A') (A")
       Virtual   (A') (A') (A') (A') (A') (A") (A') (A') (A") (A')
                 (A") (A') (A') (A') (A") (A") (A') (A') (A')
 The electronic state is 1-A'.
 Alpha  occ. eigenvalues --  -19.00848  -1.15620  -0.66514  -0.52157  -0.44719
 Alpha virt. eigenvalues --    0.17045   0.24796   0.70329   0.77200   1.06019
 Alpha virt. eigenvalues --    1.07078   1.14728   1.23446   1.49147   1.55058
 Alpha virt. eigenvalues --    1.69443   1.94323   2.38124   2.42249   3.11025
 Alpha virt. eigenvalues --    3.15832   3.34190   3.65182   3.97195
          Condensed to atoms (all electrons):
               1          2          3
     1  O    7.651803   0.349590   0.349570
     2  H    0.349590   0.503313  -0.028366
     3  H    0.349570  -0.028366   0.503295
 Mulliken charges:
               1
     1  O   -0.350963
     2  H    0.175463
     3  H    0.175500
 Sum of Mulliken charges =   0.00000
 Mulliken charges with hydrogens summed into heavy atoms:
               1
     1  O    0.000000
 Electronic spatial extent (au):  <R**2>=             18.6975
 Charge=              0.0000 electrons
 Dipole moment (field-independent basis, Debye):
    X=              0.0000    Y=             -2.2664    Z=             -0.0000  Tot=              2.2664
 Quadrupole moment (field-independent basis, Debye-Ang):
   XX=             -4.1153   YY=             -5.8853   ZZ=             -6.9932
   XY=              0.0002   XZ=              0.0000   YZ=              0.0000
 Traceless Quadrupole moment (field-independent basis, Debye-Ang):
   XX=              1.5493   YY=             -0.2207   ZZ=             -1.3286
   XY=              0.0002   XZ=              0.0000   YZ=              0.0000
 Octapole moment (field-independent basis, Debye-Ang**2):
  XXX=              0.0001  YYY=             -1.4074  ZZZ=              0.0000  XYY=             -0.0001
  XXY=             -1.3280  XXZ=             -0.0000  XZZ=              0.0000  YZZ=             -0.3710
  YYZ=             -0.0000  XYZ=             -0.0000
 Hexadecapole moment (field-independent basis, Debye-Ang**3):
 XXXX=             -5.5088 YYYY=             -5.8797 ZZZZ=             -4.8082 XXXY=             -0.0000
 XXXZ=             -0.0000 YYYX=              0.0000 YYYZ=             -0.0000 ZZZX=             -0.0000
 ZZZY=             -0.0000 XXYY=             -1.5456 XXZZ=             -1.9976 YYZZ=             -1.8366
 XXYZ=              0.0000 YYXZ=             -0.0000 ZZXY=             -0.0001
 N-N= 9.186095751009D+00 E-N=-1.989003564277D+02  KE= 7.573875983215D+01
 Symmetry A'   KE= 7.112997384480D+01
 Symmetry A"   KE= 4.608785987342D+00
 No NMR shielding tensors so no spin-rotation constants.
 Leave Link  601 at Mon Aug 29 16:34:17 2022, MaxMem=  6442450944 cpu:               1.1 elap:               0.1
 (Enter /mnt/gpfs3_amd/share/apps/amd/gaussian/g16-A.03/g16/l9999.exe)

 Test job not archived.
 1\1\GINC-MCC-LOGIN001\SP\RLC-wHPBE\def2SVP\H2O1\RDU230\29-Aug-2022\0\\
 #P LC-wHPBE/Def2SVP SCRF=(PCM,Solvent=acetonitrile) iop(3/107=04994000
 00, 3/108=0499400000)\\H2 O1\\0,1\O,0,0.,0.117652,0.\H,0,0.756359,-0.4
 70544,0.\H,0,-0.756359,-0.470672,0.\\Version=AM64L-G16RevA.03\State=1-
 A'\HF=-76.3342298\RMSD=2.818e-09\Dipole=0.0000149,-0.8916581,0.\Quadru
 pole=1.1518801,-0.1640746,-0.9878056,0.0001581,0.,0.\PG=CS [SG(H2O1)]\
 \@


 BLACK HOLES SUCK.
 Job cpu time:       0 days  0 hours  0 minutes 31.4 seconds.
 Elapsed time:       0 days  0 hours  0 minutes  2.1 seconds.
 File lengths (MBytes):  RWF=    136 Int=      0 D2E=      0 Chk=     16 Scr=     16
 Normal termination of Gaussian 16 at Mon Aug 29 16:34:17 2022.
