 Entering Gaussian System, Link 0=g16
 Input=freq_opt_cation2.com
 Output=freq_opt_cation2.log
 Initial command:
 /home1/apps/gaussian/16rA.03/g16/l1.exe "/tmp/Gau-270468.inp" -scrdir="/tmp/"
 Entering Link 1 = /home1/apps/gaussian/16rA.03/g16/l1.exe PID=    270469.
  
 Copyright (c) 1988,1990,1992,1993,1995,1998,2003,2009,2016,
            Gaussian, Inc.  All Rights Reserved.
  
 This is part of the Gaussian(R) 16 program.  It is based on
 the Gaussian(R) 09 system (copyright 2009, Gaussian, Inc.),
 the Gaussian(R) 03 system (copyright 2003, Gaussian, Inc.),
 the Gaussian(R) 98 system (copyright 1998, Gaussian, Inc.),
 the Gaussian(R) 94 system (copyright 1995, Gaussian, Inc.),
 the Gaussian 92(TM) system (copyright 1992, Gaussian, Inc.),
 the Gaussian 90(TM) system (copyright 1990, Gaussian, Inc.),
 the Gaussian 88(TM) system (copyright 1988, Gaussian, Inc.),
 the Gaussian 86(TM) system (copyright 1986, Carnegie Mellon
 University), and the Gaussian 82(TM) system (copyright 1983,
 Carnegie Mellon University). Gaussian is a federally registered
 trademark of Gaussian, Inc.
  
 This software contains proprietary and confidential information,
 including trade secrets, belonging to Gaussian, Inc.
  
 This software is provided under written license and may be
 used, copied, transmitted, or stored only in accord with that
 written license.
  
 The following legend is applicable only to US Government
 contracts under FAR:
  
                    RESTRICTED RIGHTS LEGEND
  
 Use, reproduction and disclosure by the US Government is
 subject to restrictions as set forth in subparagraphs (a)
 and (c) of the Commercial Computer Software - Restricted
 Rights clause in FAR 52.227-19.
  
 Gaussian, Inc.
 340 Quinnipiac St., Bldg. 40, Wallingford CT 06492
  
  
 ---------------------------------------------------------------
 Warning -- This program may not be used in any manner that
 competes with the business of Gaussian, Inc. or will provide
 assistance to any competitor of Gaussian, Inc.  The licensee
 of this program is prohibited from giving any competitor of
 Gaussian, Inc. access to this program.  By using this program,
 the user acknowledges that Gaussian, Inc. is engaged in the
 business of creating and licensing software in the field of
 computational chemistry and represents and warrants to the
 licensee that it is not a competitor of Gaussian, Inc. and that
 it will not use this program in any manner prohibited above.
 ---------------------------------------------------------------
  

 Cite this work as:
 Gaussian 16, Revision A.03,
 M. J. Frisch, G. W. Trucks, H. B. Schlegel, G. E. Scuseria, 
 M. A. Robb, J. R. Cheeseman, G. Scalmani, V. Barone, 
 G. A. Petersson, H. Nakatsuji, X. Li, M. Caricato, A. V. Marenich, 
 J. Bloino, B. G. Janesko, R. Gomperts, B. Mennucci, H. P. Hratchian, 
 J. V. Ortiz, A. F. Izmaylov, J. L. Sonnenberg, D. Williams-Young, 
 F. Ding, F. Lipparini, F. Egidi, J. Goings, B. Peng, A. Petrone, 
 T. Henderson, D. Ranasinghe, V. G. Zakrzewski, J. Gao, N. Rega, 
 G. Zheng, W. Liang, M. Hada, M. Ehara, K. Toyota, R. Fukuda, 
 J. Hasegawa, M. Ishida, T. Nakajima, Y. Honda, O. Kitao, H. Nakai, 
 T. Vreven, K. Throssell, J. A. Montgomery, Jr., J. E. Peralta, 
 F. Ogliaro, M. J. Bearpark, J. J. Heyd, E. N. Brothers, K. N. Kudin, 
 V. N. Staroverov, T. A. Keith, R. Kobayashi, J. Normand, 
 K. Raghavachari, A. P. Rendell, J. C. Burant, S. S. Iyengar, 
 J. Tomasi, M. Cossi, J. M. Millam, M. Klene, C. Adamo, R. Cammi, 
 J. W. Ochterski, R. L. Martin, K. Morokuma, O. Farkas, 
 J. B. Foresman, and D. J. Fox, Gaussian, Inc., Wallingford CT, 2016.
 
 ******************************************
 Gaussian 16:  ES64L-G16RevA.03 25-Dec-2016
                15-Jan-2022 
 ******************************************
 %chk=freq_opt_cation2.chk
 %mem=48GB
 %nprocshared=16
 Will use up to   16 processors via shared memory.
 %oldchk=opt_cation2.chk
 Copying data from "opt_cation2.chk" to current chk file "freq_opt_cation2.chk"
 IOpt=  2 FromEx=T IUOpen= 4 IOptOp= 5 NList=   0 IFRang= 0 IUIn= 4 IUOut= 2.
 ----------------------------------------------------------------------
 #P LC-wHPBE/Def2SVP Geom=AllCheck Guess=TCheck SCRF=Check freq iop(3/1
 07=0499400000, 3/108=0499400000)
 ----------------------------------------------------------------------
 1/10=4,29=7,30=1,38=1,40=1/1,3;
 2/12=2,40=1/2;
 3/5=43,7=101,11=2,14=-4,25=1,30=1,70=2,71=2,74=-71,107=499400000,108=499400000,116=-2,140=1/1,2,3;
 4/5=101/1;
 5/5=2,38=6,98=1/2;
 8/6=4,10=90,11=11/1;
 11/6=1,8=1,9=11,15=111,16=1/1,2,10;
 10/6=1/2;
 6/7=2,8=2,9=2,10=2,28=1/1;
 7/8=1,10=1,25=1/1,2,3,16;
 1/10=4,30=1/3;
 99//99;
 Leave Link    1 at Sat Jan 15 13:37:12 2022, MaxMem=  6442450944 cpu:               0.9 elap:               0.1
 (Enter /home1/apps/gaussian/16rA.03/g16/l101.exe)
 Structure from the checkpoint file:  "freq_opt_cation2.chk"
 -----
 H2 O1
 -----
 Charge =  2 Multiplicity = 1
 Redundant internal coordinates found in file.  (old form).
 O,0,-0.0012488224,0.3596156625,0.
 H,0,-1.0686573455,-0.18401111,0.
 H,0,1.0699061679,-0.1756045525,0.
 Recover connectivity data from disk.
 ITRead=  0  0  0
 MicOpt= -1 -1 -1
 NAtoms=      3 NQM=        3 NQMF=       0 NMMI=      0 NMMIF=      0
                NMic=       0 NMicF=      0.
                    Isotopes and Nuclear Properties:
 (Nuclear quadrupole moments (NQMom) in fm**2, nuclear magnetic moments (NMagM)
  in nuclear magnetons)

  Atom         1           2           3
 IAtWgt=          16           1           1
 AtmWgt=  15.9949146   1.0078250   1.0078250
 NucSpn=           0           1           1
 AtZEff=   5.6000000   1.0000000   1.0000000
 NQMom=    0.0000000   0.0000000   0.0000000
 NMagM=    0.0000000   2.7928460   2.7928460
 AtZNuc=   8.0000000   1.0000000   1.0000000
 Leave Link  101 at Sat Jan 15 13:37:13 2022, MaxMem=  6442450944 cpu:               6.6 elap:               0.4
 (Enter /home1/apps/gaussian/16rA.03/g16/l103.exe)

 GradGradGradGradGradGradGradGradGradGradGradGradGradGradGradGradGradGrad
 Berny optimization.
 Initialization pass.
                           ----------------------------
                           !    Initial Parameters    !
                           ! (Angstroms and Degrees)  !
 --------------------------                            --------------------------
 ! Name  Definition              Value          Derivative Info.                !
 --------------------------------------------------------------------------------
 ! R1    R(1,2)                  1.1979         calculate D2E/DX2 analytically  !
 ! R2    R(1,3)                  1.1974         calculate D2E/DX2 analytically  !
 ! A1    A(2,1,3)              126.4607         calculate D2E/DX2 analytically  !
 --------------------------------------------------------------------------------
 Trust Radius=3.00D-01 FncErr=1.00D-07 GrdErr=1.00D-07 EigMax=2.50D+02 EigMin=1.00D-04
 Number of steps in this run=      2 maximum allowed number of steps=      2.
 GradGradGradGradGradGradGradGradGradGradGradGradGradGradGradGradGradGrad

 Leave Link  103 at Sat Jan 15 13:37:13 2022, MaxMem=  6442450944 cpu:               0.2 elap:               0.0
 (Enter /home1/apps/gaussian/16rA.03/g16/l202.exe)
                          Input orientation:                          
 ---------------------------------------------------------------------
 Center     Atomic      Atomic             Coordinates (Angstroms)
 Number     Number       Type             X           Y           Z
 ---------------------------------------------------------------------
      1          8           0       -0.001249    0.359616   -0.000000
      2          1           0       -1.068657   -0.184011   -0.000000
      3          1           0        1.069906   -0.175605    0.000000
 ---------------------------------------------------------------------
                    Distance matrix (angstroms):
                    1          2          3
     1  O    0.000000
     2  H    1.197869   0.000000
     3  H    1.197428   2.138580   0.000000
 Stoichiometry    H2O(2+)
 Framework group  CS[SG(H2O)]
 Deg. of freedom     3
 Full point group                 CS      NOp   2
 RotChk:  IX=0 Diff= 7.69D-16
 Largest Abelian subgroup         CS      NOp   2
 Largest concise Abelian subgroup C1      NOp   1
                         Standard orientation:                         
 ---------------------------------------------------------------------
 Center     Atomic      Atomic             Coordinates (Angstroms)
 Number     Number       Type             X           Y           Z
 ---------------------------------------------------------------------
      1          8           0       -0.000000    0.107885    0.000000
      2          1           0        1.069290   -0.432031    0.000000
      3          1           0       -1.069290   -0.431051   -0.000000
 ---------------------------------------------------------------------
 Rotational constants (GHZ):         970.2477174         219.2860521         178.8614977
 Leave Link  202 at Sat Jan 15 13:37:13 2022, MaxMem=  6442450944 cpu:               0.2 elap:               0.0
 (Enter /home1/apps/gaussian/16rA.03/g16/l301.exe)
 Standard basis: def2SVP (5D, 7F)
 Ernie: Thresh=  0.10000D-02 Tol=  0.10000D-05 Strict=F.
 There are    19 symmetry adapted cartesian basis functions of A'  symmetry.
 There are     6 symmetry adapted cartesian basis functions of A"  symmetry.
 There are    18 symmetry adapted basis functions of A'  symmetry.
 There are     6 symmetry adapted basis functions of A"  symmetry.
    24 basis functions,    39 primitive gaussians,    25 cartesian basis functions
     4 alpha electrons        4 beta electrons
       nuclear repulsion energy         7.3169920807 Hartrees.
 IExCor=33909 DFT=T Ex+Corr=LC-wHPBE ExCW=0 ScaHFX=  1.000000
 ScaDFX=  1.000000  1.000000  1.000000  1.000000 ScalE2=  1.000000  1.000000
 IRadAn=      5 IRanWt=     -1 IRanGd=            0 ICorTp=0 IEmpDi=  4
 HFx  wShort=  0.000000 wLong=  0.499400 cFull=  0.000000 cShort=  0.000000 cLong=  1.000000
 DFx  wShort=  0.000000 wLong=  0.499400 cFull=  0.000000 cShort=  1.000000 cLong=  0.000000
 NAtoms=    3 NActive=    3 NUniq=    3 SFac= 1.00D+00 NAtFMM=   60 NAOKFM=F Big=F
 Integral buffers will be    131072 words long.
 Raffenetti 2 integral format.
 Two-electron integral symmetry is turned on.
 Leave Link  301 at Sat Jan 15 13:37:13 2022, MaxMem=  6442450944 cpu:               0.9 elap:               0.1
 (Enter /home1/apps/gaussian/16rA.03/g16/l302.exe)
 NPDir=0 NMtPBC=     1 NCelOv=     1 NCel=       1 NClECP=     1 NCelD=      1
         NCelK=      1 NCelE2=     1 NClLst=     1 CellRange=     0.0.
 One-electron integrals computed using PRISM.
 One-electron integral symmetry used in STVInt
   2 Symmetry operations used in ECPInt.
 ECPInt:  NShTT=      78 NPrTT=     272 LenC2=      79 LenP2D=     265.
 LDataN:  DoStor=T MaxTD1= 4 Len=   56
 NBasis=    24 RedAO= T EigKep=  6.66D-02  NBF=    18     6
 NBsUse=    24 1.00D-06 EigRej= -1.00D+00 NBFU=    18     6
 Precomputing XC quadrature grid using
 IXCGrd= 4 IRadAn=           5 IRanWt=          -1 IRanGd=           0 AccXCQ= 0.00D+00.
 Generated NRdTot=       0 NPtTot=           0 NUsed=           0 NTot=          32
 NSgBfM=    25    25    25    25    25 MxSgAt=     3 MxSgA2=     3.
 Leave Link  302 at Sat Jan 15 13:37:13 2022, MaxMem=  6442450944 cpu:               2.0 elap:               0.1
 (Enter /home1/apps/gaussian/16rA.03/g16/l303.exe)
 DipDrv:  MaxL=1.
 Leave Link  303 at Sat Jan 15 13:37:13 2022, MaxMem=  6442450944 cpu:               0.4 elap:               0.0
 (Enter /home1/apps/gaussian/16rA.03/g16/l401.exe)
 Initial guess from the checkpoint file:  "freq_opt_cation2.chk"
 B after Tr=    -0.000000    0.000000    0.000000
         Rot=    1.000000   -0.000000   -0.000000   -0.000000 Ang=   0.00 deg.
 Guess basis will be translated and rotated to current coordinates.
 JPrj=2 DoOrth=T DoCkMO=T.
 Initial guess orbital symmetries:
       Occupied  (A') (A') (A') (A')
       Virtual   (A") (A') (A') (A') (A') (A") (A') (A') (A') (A")
                 (A') (A') (A") (A') (A') (A") (A') (A") (A') (A')
 The electronic state of the initial guess is 1-A'.
 Leave Link  401 at Sat Jan 15 13:37:13 2022, MaxMem=  6442450944 cpu:               1.4 elap:               0.1
 (Enter /home1/apps/gaussian/16rA.03/g16/l502.exe)
 Keep R1 ints in memory in symmetry-blocked form, NReq=13884302.
 FoFCou: FMM=F IPFlag=           0 FMFlag=           0 FMFlg1=           0
         NFxFlg=           0 DoJE=F BraDBF=F KetDBF=F FulRan=T
         wScrn=  0.000000 ICntrl=       600 IOpCl=  0 I1Cent=           0 NGrid=           0
         NMat0=    1 NMatS0=    300 NMatT0=    0 NMatD0=    1 NMtDS0=    0 NMtDT0=    0
 Petite list used in FoFCou.
 Closed shell SCF:
 Using DIIS extrapolation, IDIIS=  1040.
 NGot=  6442450944 LenX=  6442423464 LenY=  6442422398
 Requested convergence on RMS density matrix=1.00D-08 within 128 cycles.
 Requested convergence on MAX density matrix=1.00D-06.
 Requested convergence on             energy=1.00D-06.
 No special actions if energy rises.

 Cycle   1  Pass 1  IDiag  1:
 E= -74.8339364498266    
 DIIS: error= 8.72D-10 at cycle   1 NSaved=   1.
 NSaved= 1 IEnMin= 1 EnMin= -74.8339364498266     IErMin= 1 ErrMin= 8.72D-10
 ErrMax= 8.72D-10  0.00D+00 EMaxC= 1.00D-01 BMatC= 1.34D-17 BMatP= 1.34D-17
 IDIUse=1 WtCom= 1.00D+00 WtEn= 0.00D+00
 Coeff-Com:  0.100D+01
 Coeff:      0.100D+01
 Gap=     0.412 Goal=   None    Shift=    0.000
 RMSDP=1.77D-10 MaxDP=1.22D-09              OVMax= 2.05D-09

 SCF Done:  E(RLC-wHPBE) =  -74.8339364498     A.U. after    1 cycles
            NFock=  1  Conv=0.18D-09     -V/T= 2.0044
 KE= 7.450490796603D+01 PE=-1.844135658636D+02 EE= 2.775772936709D+01
 Leave Link  502 at Sat Jan 15 13:37:14 2022, MaxMem=  6442450944 cpu:               3.4 elap:               0.2
 (Enter /home1/apps/gaussian/16rA.03/g16/l801.exe)
 DoSCS=F DFT=T ScalE2(SS,OS)=  1.000000  1.000000
 Range of M.O.s used for correlation:     1    24
 NBasis=    24 NAE=     4 NBE=     4 NFC=     0 NFV=     0
 NROrb=     24 NOA=     4 NOB=     4 NVA=    20 NVB=    20
 Leave Link  801 at Sat Jan 15 13:37:14 2022, MaxMem=  6442450944 cpu:               0.3 elap:               0.0
 (Enter /home1/apps/gaussian/16rA.03/g16/l1101.exe)
 Using compressed storage, NAtomX=     3.
 Will process      4 centers per pass.
   2 Symmetry operations used in ECPInt.
 ECPInt:  NShTT=      78 NPrTT=     272 LenC2=      79 LenP2D=     265.
 LDataN:  DoStor=T MaxTD1= 5 Len=  102
 Leave Link 1101 at Sat Jan 15 13:37:14 2022, MaxMem=  6442450944 cpu:               1.7 elap:               0.1
 (Enter /home1/apps/gaussian/16rA.03/g16/l1102.exe)
 Symmetrizing basis deriv contribution to polar:
 IMax=3 JMax=2 DiffMx= 0.00D+00
 Leave Link 1102 at Sat Jan 15 13:37:14 2022, MaxMem=  6442450944 cpu:               0.3 elap:               0.0
 (Enter /home1/apps/gaussian/16rA.03/g16/l1110.exe)
 Forming Gx(P) for the SCF density, NAtomX=     3.
 Integral derivatives from FoFJK, PRISM(SPDF).
 Do as many integral derivatives as possible in FoFJK.
 G2DrvN: MDV=    6442450604.
 G2DrvN: will do     4 centers at a time, making    1 passes.
 Calling FoFCou, ICntrl=  3107 FMM=F I1Cent=   0 AccDes= 0.00D+00.
 FoFJK:  IHMeth= 1 ICntrl=    3107 DoSepK=T KAlg= 0 I1Cent=           0 FoldK=F
 IRaf=         1 NMat=       1 IRICut=       1 DoRegI=T DoRafI=F ISym2E= 1 IDoP0=0 IntGTp=1.
 FoFCou: FMM=F IPFlag=           0 FMFlag=      100000 FMFlg1=           0
         NFxFlg=           0 DoJE=F BraDBF=F KetDBF=F FulRan=T
         wScrn=  0.000000 ICntrl=      3507 IOpCl=  0 I1Cent=           0 NGrid=           0
         NMat0=    1 NMatS0=      1 NMatT0=    0 NMatD0=    1 NMtDS0=    0 NMtDT0=    0
 Petite list used in FoFCou.
 End of G2Drv F.D. properties file   721 does not exist.
 End of G2Drv F.D. properties file   722 does not exist.
 End of G2Drv F.D. properties file   788 does not exist.
 Leave Link 1110 at Sat Jan 15 13:37:14 2022, MaxMem=  6442450944 cpu:               4.5 elap:               0.3
 (Enter /home1/apps/gaussian/16rA.03/g16/l1002.exe)
 Minotr:  Closed shell wavefunction.
          IDoAtm=111
          Direct CPHF calculation.
          Differentiating once with respect to electric field.
                with respect to dipole field.
          Differentiating once with respect to nuclear coordinates.
          Using symmetry in CPHF.
          Requested convergence is 1.0D-08 RMS, and 1.0D-07 maximum.
          Secondary convergence is 1.0D-12 RMS, and 1.0D-12 maximum.
          NewPWx=T KeepS1=F KeepF1=F KeepIn=T MapXYZ=F SortEE=F KeepMc=T.
          881 words used for storage of precomputed grid.
 Keep R1 ints in memory in symmetry-blocked form, NReq=13830986.
 FoFCou: FMM=F IPFlag=           0 FMFlag=           0 FMFlg1=           0
         NFxFlg=           0 DoJE=F BraDBF=F KetDBF=F FulRan=T
         wScrn=  0.000000 ICntrl=       600 IOpCl=  0 I1Cent=           0 NGrid=           0
         NMat0=    1 NMatS0=    300 NMatT0=    0 NMatD0=    1 NMtDS0=    0 NMtDT0=    0
 Petite list used in FoFCou.
          MDV=    6442450944 using IRadAn=       1.
          Solving linear equations simultaneously, MaxMat=       0.
          There are    12 degrees of freedom in the 1st order CPHF.  IDoFFX=6 NUNeed=     3.
      9 vectors produced by pass  0 Test12= 6.67D-16 8.33D-09 XBig12= 1.13D+00 8.55D-01.
 AX will form     9 AO Fock derivatives at one time.
      9 vectors produced by pass  1 Test12= 6.67D-16 8.33D-09 XBig12= 1.85D-02 7.92D-02.
      9 vectors produced by pass  2 Test12= 6.67D-16 8.33D-09 XBig12= 1.47D-04 6.49D-03.
      9 vectors produced by pass  3 Test12= 6.67D-16 8.33D-09 XBig12= 3.51D-07 3.09D-04.
      9 vectors produced by pass  4 Test12= 6.67D-16 8.33D-09 XBig12= 4.18D-10 8.52D-06.
      6 vectors produced by pass  5 Test12= 6.67D-16 8.33D-09 XBig12= 1.20D-12 5.23D-07.
      2 vectors produced by pass  6 Test12= 6.67D-16 8.33D-09 XBig12= 1.67D-15 1.71D-08.
 InvSVY:  IOpt=1 It=  1 EMax= 6.66D-16
 Solved reduced A of dimension    53 with     9 vectors.
 FullF1:  Do perturbations      1 to       3.
 Isotropic polarizability for W=    0.000000        3.60 Bohr**3.
 End of Minotr F.D. properties file   721 does not exist.
 End of Minotr F.D. properties file   722 does not exist.
 End of Minotr F.D. properties file   788 does not exist.
 Leave Link 1002 at Sat Jan 15 13:37:14 2022, MaxMem=  6442450944 cpu:               3.9 elap:               0.3
 (Enter /home1/apps/gaussian/16rA.03/g16/l601.exe)
 Copying SCF densities to generalized density rwf, IOpCl= 0 IROHF=0.

 **********************************************************************

            Population analysis using the SCF density.

 **********************************************************************

 Orbital symmetries:
       Occupied  (A') (A') (A') (A')
       Virtual   (A") (A') (A') (A') (A') (A") (A') (A') (A') (A")
                 (A') (A') (A") (A') (A') (A") (A') (A") (A') (A')
 The electronic state is 1-A'.
 Alpha  occ. eigenvalues --  -20.14581  -2.04588  -1.54384  -1.42303
 Alpha virt. eigenvalues --   -1.01113  -0.59689  -0.51758  -0.09970  -0.01667
 Alpha virt. eigenvalues --    0.19553   0.23321   0.39049   0.39521   0.67794
 Alpha virt. eigenvalues --    0.90671   0.91201   0.95740   1.22977   1.24794
 Alpha virt. eigenvalues --    1.87682   1.94983   2.00137   2.64513   2.66757
          Condensed to atoms (all electrons):
               1          2          3
     1  O    6.874219   0.207803   0.207989
     2  H    0.207803   0.148096  -0.001083
     3  H    0.207989  -0.001083   0.148268
 Mulliken charges:
               1
     1  O    0.709989
     2  H    0.645184
     3  H    0.644827
 Sum of Mulliken charges =   2.00000
 Mulliken charges with hydrogens summed into heavy atoms:
               1
     1  O    2.000000
 APT charges:
               1
     1  O    0.330888
     2  H    0.834690
     3  H    0.834422
 Sum of APT charges =   2.00000
 APT charges with hydrogens summed into heavy atoms:
               1
     1  O    2.000000
 Electronic spatial extent (au):  <R**2>=             11.9052
 Charge=              2.0000 electrons
 Dipole moment (field-independent basis, Debye):
    X=              0.0010    Y=             -2.5680    Z=              0.0000  Tot=              2.5680
 Quadrupole moment (field-independent basis, Debye-Ang):
   XX=              3.7771   YY=             -3.3999   ZZ=             -3.1701
   XY=             -0.0043   XZ=              0.0000   YZ=             -0.0000
 Traceless Quadrupole moment (field-independent basis, Debye-Ang):
   XX=              4.7081   YY=             -2.4689   ZZ=             -2.2392
   XY=             -0.0043   XZ=              0.0000   YZ=             -0.0000
 Octapole moment (field-independent basis, Debye-Ang**2):
  XXX=              0.0013  YYY=             -1.5343  ZZZ=             -0.0000  XYY=              0.0037
  XXY=             -4.0857  XXZ=              0.0000  XZZ=              0.0000  YZZ=             -0.1485
  YYZ=              0.0000  XYZ=             -0.0000
 Hexadecapole moment (field-independent basis, Debye-Ang**3):
 XXXX=              6.0509 YYYY=             -3.1966 ZZZZ=             -1.3722 XXXY=             -0.0049
 XXXZ=              0.0000 YYYX=             -0.0021 YYYZ=             -0.0000 ZZZX=             -0.0000
 ZZZY=              0.0000 XXYY=              0.4109 XXZZ=             -1.0035 YYZZ=             -0.7933
 XXYZ=             -0.0000 YYXZ=              0.0000 ZZXY=              0.0001
 N-N= 7.316992080656D+00 E-N=-1.844135658597D+02  KE= 7.450490796603D+01
 Symmetry A'   KE= 7.450490796603D+01
 Symmetry A"   KE= 3.287012222621D-62
  Exact polarizability:   5.690  -0.002   2.571   0.000   0.000   2.537
 Approx polarizability:   4.797  -0.001   2.297   0.000  -0.000   2.489
 No NMR shielding tensors so no spin-rotation constants.
 Leave Link  601 at Sat Jan 15 13:37:15 2022, MaxMem=  6442450944 cpu:               1.3 elap:               0.1
 (Enter /home1/apps/gaussian/16rA.03/g16/l701.exe)
 ... and contract with generalized density number  0.
 Compute integral second derivatives.
   2 Symmetry operations used in ECPInt.
 ECPInt:  NShTT=      78 NPrTT=     272 LenC2=      79 LenP2D=     265.
 LDataN:  DoStor=T MaxTD1= 6 Len=  172
 Leave Link  701 at Sat Jan 15 13:37:15 2022, MaxMem=  6442450944 cpu:               2.1 elap:               0.2
 (Enter /home1/apps/gaussian/16rA.03/g16/l702.exe)
 L702 exits ... SP integral derivatives will be done elsewhere.
 Leave Link  702 at Sat Jan 15 13:37:15 2022, MaxMem=  6442450944 cpu:               0.3 elap:               0.0
 (Enter /home1/apps/gaussian/16rA.03/g16/l703.exe)
 Integral derivatives from FoFJK, PRISM(SPDF).
 Compute integral second derivatives, UseDBF=F ICtDFT=           0.
 Calling FoFJK, ICntrl=    100127 FMM=F ISym2X=1 I1Cent= 0 IOpClX= 0 NMat=1 NMatS=1 NMatT=0.
 FoFJK:  IHMeth= 1 ICntrl=  100127 DoSepK=T KAlg= 0 I1Cent=           0 FoldK=F
 IRaf=         1 NMat=       1 IRICut=       1 DoRegI=T DoRafI=F ISym2E= 1 IDoP0=0 IntGTp=1.
 FoFCou: FMM=F IPFlag=           0 FMFlag=      100000 FMFlg1=         800
         NFxFlg=           0 DoJE=F BraDBF=F KetDBF=F FulRan=T
         wScrn=  0.000000 ICntrl=    100527 IOpCl=  0 I1Cent=           0 NGrid=           0
         NMat0=    1 NMatS0=      1 NMatT0=    0 NMatD0=    1 NMtDS0=    0 NMtDT0=    0
 Petite list used in FoFCou.
 Leave Link  703 at Sat Jan 15 13:37:15 2022, MaxMem=  6442450944 cpu:               7.8 elap:               0.5
 (Enter /home1/apps/gaussian/16rA.03/g16/l716.exe)
 Dipole        = 3.74142874D-04-1.01032648D+00 3.12599362D-32
 Polarizability= 5.68965141D+00-1.79141385D-03 2.57134654D+00
                 1.52022256D-31 1.24991730D-32 2.53689198D+00
 Full mass-weighted force constant matrix:
 Low frequencies ---   -0.0017   -0.0012    0.0012   17.9089   52.3282  113.9774
 Low frequencies ---  817.8800 1442.8121 1838.3137
 Diagonal vibrational polarizability:
       26.5241717      19.7651705       0.0000000
 Harmonic frequencies (cm**-1), IR intensities (KM/Mole), Raman scattering
 activities (A**4/AMU), depolarization ratios for plane and unpolarized
 incident light, reduced masses (AMU), force constants (mDyne/A),
 and normal coordinates:
                      1                      2                      3
                     A'                     A'                     A'
 Frequencies --    817.8799              1442.8121              1838.3137
 Red. masses --      1.0893                 1.1021                 1.0391
 Frc consts  --      0.4293                 1.3517                 2.0690
 IR Inten    --    407.9630              2051.7557               421.0340
  Atom  AN      X      Y      Z        X      Y      Z        X      Y      Z
     1   8    -0.00  -0.07   0.00    -0.08   0.00  -0.00    -0.00  -0.05   0.00
     2   1     0.39   0.58   0.00     0.63  -0.32   0.00    -0.60   0.36  -0.00
     3   1    -0.39   0.59  -0.00     0.63   0.32   0.00     0.61   0.36   0.00

 -------------------
 - Thermochemistry -
 -------------------
 Temperature   298.150 Kelvin.  Pressure   1.00000 Atm.
 Atom     1 has atomic number  8 and mass  15.99491
 Atom     2 has atomic number  1 and mass   1.00783
 Atom     3 has atomic number  1 and mass   1.00783
 Molecular mass:    18.01056 amu.
 Principal axes and moments of inertia in atomic units:
                           1         2         3
     Eigenvalues --     1.86008   8.23008  10.09016
           X            1.00000   0.00059   0.00000
           Y           -0.00059   1.00000   0.00000
           Z            0.00000  -0.00000   1.00000
 This molecule is an asymmetric top.
 Rotational symmetry number  1.
 Rotational temperatures (Kelvin)     46.56455    10.52407     8.58400
 Rotational constants (GHZ):         970.24772   219.28605   178.86150
 Zero-point vibrational energy      24517.5 (Joules/Mol)
                                    5.85982 (Kcal/Mol)
 Vibrational temperatures:   1176.75  2075.88  2644.92
          (Kelvin)
 
 Zero-point correction=                           0.009338 (Hartree/Particle)
 Thermal correction to Energy=                    0.012252
 Thermal correction to Enthalpy=                  0.013196
 Thermal correction to Gibbs Free Energy=        -0.009435
 Sum of electronic and zero-point Energies=            -74.824598
 Sum of electronic and thermal Energies=               -74.821685
 Sum of electronic and thermal Enthalpies=             -74.820741
 Sum of electronic and thermal Free Energies=          -74.843371
 
                     E (Thermal)             CV                S
                      KCal/Mol        Cal/Mol-Kelvin    Cal/Mol-Kelvin
 Total                    7.688              6.697             47.630
 Electronic               0.000              0.000              0.000
 Translational            0.889              2.981             34.608
 Rotational               0.889              2.981             12.811
 Vibrational              5.911              0.735              0.211
                       Q            Log10(Q)             Ln(Q)
 Total Bot       0.218610D+05          4.339671          9.992461
 Total V=0       0.431470D+09          8.634951         19.882709
 Vib (Bot)       0.517205D-04         -4.286337         -9.869656
 Vib (V=0)       0.102081D+01          0.008943          0.020592
 Electronic      0.100000D+01          0.000000          0.000000
 Translational   0.300431D+07          6.477745         14.915559
 Rotational      0.140690D+03          2.148263          4.946558
 
                                                                H2 O1
                                                             IR Spectrum
 
     1                           1                                                                                                   
     8                           4                                          8                                                        
     3                           4                                          1                                                        
     8                           3                                          8                                                        
 
     X                           X                                          X                                                        
     X                           X                                          X                                                        
     X                           X                                          X                                                        
     X                           X                                          X                                                        
                                 X                                                                                                   
                                 X                                                                                                   
                                 X                                                                                                   
                                 X                                                                                                   
                                 X                                                                                                   
                                 X                                                                                                   
                                 X                                                                                                   
                                 X                                                                                                   
                                 X                                                                                                   
                                 X                                                                                                   
                                 X                                                                                                   
                                 X                                                                                                   
                                 X                                                                                                   
                                 X                                                                                                   
                                 X                                                                                                   
                                 X                                                                                                   
 
 ***** Axes restored to original set *****
 -------------------------------------------------------------------
 Center     Atomic                   Forces (Hartrees/Bohr)
 Number     Number              X              Y              Z
 -------------------------------------------------------------------
      1        8          -0.000053673   -0.000019170   -0.000000000
      2        1           0.000037675    0.000023195    0.000000000
      3        1           0.000015999   -0.000004025    0.000000000
 -------------------------------------------------------------------
 Cartesian Forces:  Max     0.000053673 RMS     0.000024671
 Force constants in Cartesian coordinates: 
                1             2             3             4             5 
      1  0.115006D+00
      2 -0.978505D-04  0.980257D-01
      3  0.000000D+00  0.000000D+00  0.879135D-03
      4 -0.570610D-01 -0.440220D-01  0.000000D+00  0.779145D-01
      5 -0.289685D-01 -0.492607D-01  0.000000D+00  0.366384D-01  0.320843D-01
      6  0.000000D+00  0.000000D+00 -0.452807D-03  0.000000D+00  0.000000D+00
      7 -0.579455D-01  0.441198D-01  0.000000D+00 -0.208535D-01 -0.766987D-02
      8  0.290664D-01 -0.487651D-01  0.000000D+00  0.738360D-02  0.171764D-01
      9  0.000000D+00  0.000000D+00 -0.426329D-03  0.000000D+00  0.000000D+00
                6             7             8             9 
      6  0.285493D-03
      7  0.000000D+00  0.787989D-01
      8  0.000000D+00 -0.364500D-01  0.315887D-01
      9  0.167313D-03  0.000000D+00  0.000000D+00  0.259015D-03
 FormGI is forming the generalized inverse of G from B-inverse, IUseBI=4.
 Force constants in internal coordinates: 
                1             2             3 
      1  0.981032D-01
      2  0.261669D-01  0.985099D-01
      3 -0.680228D-02 -0.679194D-02  0.608121D-01
 Leave Link  716 at Sat Jan 15 13:37:15 2022, MaxMem=  6442450944 cpu:               0.4 elap:               0.0
 (Enter /home1/apps/gaussian/16rA.03/g16/l103.exe)

 GradGradGradGradGradGradGradGradGradGradGradGradGradGradGradGradGradGrad
 Berny optimization.
 Red2BG is reusing G-inverse.
 Internal  Forces:  Max     0.000044094 RMS     0.000027500
 Search for a local minimum.
 Step number   1 out of a maximum of    2
 All quantities printed in internal units (Hartrees-Bohrs-Radians)
 Second derivative matrix not updated -- analytic derivatives used.
 The second derivative matrix:
                          R1        R2        A1
           R1           0.09810
           R2           0.02617   0.09851
           A1          -0.00680  -0.00679   0.06081
 ITU=  0
     Eigenvalues ---    0.05939   0.07214   0.12589
 Angle between quadratic step and forces=  10.38 degrees.
 Linear search not attempted -- first point.
 Iteration  1 RMS(Cart)=  0.00022678 RMS(Int)=  0.00000001
 Iteration  2 RMS(Cart)=  0.00000001 RMS(Int)=  0.00000000
 ITry= 1 IFail=0 DXMaxC= 2.87D-04 DCOld= 1.00D+10 DXMaxT= 3.00D-01 DXLimC= 3.00D+00 Rises=F
 ClnCor:  largest displacement from symmetrization is 4.97D-16 for atom     2.
 Variable       Old X    -DE/DX   Delta X   Delta X   Delta X     New X
                                 (Linear)    (Quad)   (Total)
    R1        2.26365  -0.00004   0.00000  -0.00052  -0.00052   2.26312
    R2        2.26281   0.00002   0.00000   0.00031   0.00031   2.26312
    A1        2.20716   0.00001   0.00000   0.00011   0.00011   2.20726
         Item               Value     Threshold  Converged?
 Maximum Force            0.000044     0.000450     YES
 RMS     Force            0.000027     0.000300     YES
 Maximum Displacement     0.000287     0.001800     YES
 RMS     Displacement     0.000227     0.001200     YES
 Predicted change in Energy=-1.450571D-08
 Optimization completed.
    -- Stationary point found.
                           ----------------------------
                           !   Optimized Parameters   !
                           ! (Angstroms and Degrees)  !
 --------------------------                            --------------------------
 ! Name  Definition              Value          Derivative Info.                !
 --------------------------------------------------------------------------------
 ! R1    R(1,2)                  1.1979         -DE/DX =    0.0                 !
 ! R2    R(1,3)                  1.1974         -DE/DX =    0.0                 !
 ! A1    A(2,1,3)              126.4607         -DE/DX =    0.0                 !
 --------------------------------------------------------------------------------
 GradGradGradGradGradGradGradGradGradGradGradGradGradGradGradGradGradGrad

 Leave Link  103 at Sat Jan 15 13:37:15 2022, MaxMem=  6442450944 cpu:               0.1 elap:               0.0
 (Enter /home1/apps/gaussian/16rA.03/g16/l9999.exe)

 ----------------------------------------------------------------------

 Electric dipole moment (input orientation):
 (Debye = 10**-18 statcoulomb cm , SI units = C m)
                  (au)            (Debye)         (10**-30 SI)
   Tot        0.101033D+01      0.256799D+01      0.856591D+01
   x          0.313436D-02      0.796674D-02      0.265742D-01
   y         -0.101032D+01     -0.256798D+01     -0.856586D+01
   z          0.000000D+00      0.000000D+00      0.000000D+00

 Dipole polarizability, Alpha (input orientation).
 (esu units = cm**3 , SI units = C**2 m**2 J**-1)
 Alpha(0;0):
               (au)            (10**-24 esu)      (10**-40 SI)
   iso        0.359930D+01      0.533361D+00      0.593444D+00
   aniso      0.313568D+01      0.464659D+00      0.517003D+00
   xx         0.568960D+01      0.843112D+00      0.938089D+00
   yx         0.126200D-01      0.187010D-02      0.208076D-02
   yy         0.257140D+01      0.381042D+00      0.423966D+00
   zx         0.000000D+00      0.000000D+00      0.000000D+00
   zy         0.000000D+00      0.000000D+00      0.000000D+00
   zz         0.253689D+01      0.375929D+00      0.418277D+00

 ----------------------------------------------------------------------

 Dipole orientation:
     8         -0.00025166         -0.00000078         -0.67957916
     1         -2.02052903         -0.00626836          0.34146389
     1          2.02078069          0.00626914          0.33811528

 Electric dipole moment (dipole orientation):
 (Debye = 10**-18 statcoulomb cm , SI units = C m)
                  (au)            (Debye)         (10**-30 SI)
   Tot        0.101033D+01      0.256799D+01      0.856591D+01
   x          0.000000D+00      0.000000D+00      0.000000D+00
   y          0.000000D+00      0.000000D+00      0.000000D+00
   z          0.101033D+01      0.256799D+01      0.856591D+01

 Dipole polarizability, Alpha (dipole orientation).
 (esu units = cm**3 , SI units = C**2 m**2 J**-1)
 Alpha(0;0):
               (au)            (10**-24 esu)      (10**-40 SI)
   iso        0.359930D+01      0.533361D+00      0.593444D+00
   aniso      0.313568D+01      0.464659D+00      0.517003D+00
   xx         0.568962D+01      0.843115D+00      0.938092D+00
   yx         0.978082D-02      0.144937D-02      0.161264D-02
   yy         0.253692D+01      0.375933D+00      0.418282D+00
   zx        -0.294617D-02     -0.436577D-03     -0.485757D-03
   zy         0.000000D+00      0.000000D+00      0.000000D+00
   zz         0.257135D+01      0.381035D+00      0.423958D+00

 ----------------------------------------------------------------------

 Test job not archived.
 1\1\GINC-C490-123\Freq\RLC-wHPBE\def2SVP\H2O1(2+)\TG878040\15-Jan-2022
 \0\\#P LC-wHPBE/Def2SVP Geom=AllCheck Guess=TCheck SCRF=Check freq iop
 (3/107=0499400000, 3/108=0499400000)\\H2 O1\\2,1\O,-0.0012488224,0.359
 6156625,0.\H,-1.0686573455,-0.18401111,0.\H,1.0699061679,-0.1756045525
 ,0.\\Version=ES64L-G16RevA.03\State=1-A'\HF=-74.8339364\RMSD=1.773e-10
 \RMSF=2.467e-05\ZeroPoint=0.0093382\Thermal=0.0122516\Dipole=0.0031344
 ,-1.0103217,0.\DipoleDeriv=-0.1919947,-0.0030449,0.,-0.0029443,0.57427
 98,0.,0.,0.,0.6103796,1.0948348,0.149354,0.,0.2034687,0.7143321,0.,0.,
 0.,0.6949029,1.0971599,-0.1463091,0.,-0.2005244,0.7113881,0.,0.,0.,0.6
 947175\Polar=5.6896014,0.01262,2.5713966,0.,0.,2.536892\Quadrupole=3.5
 002498,-1.8354932,-1.6647566,0.021715,0.,0.\PG=CS [SG(H2O1)]\NImag=0\\
 0.11500649,-0.00009785,0.09802574,0.,0.,0.00087914,-0.05706103,-0.0440
 2199,0.,0.07791451,-0.02896852,-0.04926066,0.,0.03663838,0.03208430,0.
 ,0.,-0.00045281,0.,0.,0.00028549,-0.05794546,0.04411984,0.,-0.02085348
 ,-0.00766987,0.,0.07879894,0.02906637,-0.04876508,0.,0.00738360,0.0171
 7636,0.,-0.03644997,0.03158872,0.,0.,-0.00042633,0.,0.,0.00016731,0.,0
 .,0.00025902\\0.00005367,0.00001917,0.,-0.00003767,-0.00002319,0.,-0.0
 0001600,0.00000403,0.\\\@


 WHAT, THEN, IS TIME?  IF NO ONE ASKS ME, I KNOW WHAT IT IS.
 IF I WISH TO EXPLAIN WHAT IT IS TO HIM WHO ASKS ME, I DO NOT KNOW.
                                   -- ST. AUGUSTINE (FIFTH CENTURY)
 Job cpu time:       0 days  0 hours  0 minutes 39.3 seconds.
 Elapsed time:       0 days  0 hours  0 minutes  2.9 seconds.
 File lengths (MBytes):  RWF=      6 Int=      0 D2E=      0 Chk=      1 Scr=      1
 Normal termination of Gaussian 16 at Sat Jan 15 13:37:15 2022.
