 Entering Gaussian System, Link 0=/mnt/gpfs3_amd/share/apps/amd/gaussian/g16-A.03/g16/g16
 Input=/scratch/rdu230/d3tales/high_throughput/runfiles//05XICU/gaussian/solv_acetonitrile/energy/anion2/energy_anion2.com
 Output=/scratch/rdu230/d3tales/high_throughput/runfiles//05XICU/gaussian/solv_acetonitrile/energy/anion2/energy_anion2.log
 Initial command:
 /mnt/gpfs3_amd/share/apps/amd/gaussian/g16-A.03/g16/l1.exe "/scratch/rdu230/d3tales/high_throughput/runfiles/05XICU/gaussian/solv_acetonitrile/energy/anion2/Gau-1961894.inp" -scrdir="/scratch/rdu230/d3tales/high_throughput/runfiles/05XICU/gaussian/solv_acetonitrile/energy/anion2/"
 Entering Link 1 = /mnt/gpfs3_amd/share/apps/amd/gaussian/g16-A.03/g16/l1.exe PID=   1961895.
  
 Copyright (c) 1988,1990,1992,1993,1995,1998,2003,2009,2016,
            Gaussian, Inc.  All Rights Reserved.
  
 This is part of the Gaussian(R) 16 program.  It is based on
 the Gaussian(R) 09 system (copyright 2009, Gaussian, Inc.),
 the Gaussian(R) 03 system (copyright 2003, Gaussian, Inc.),
 the Gaussian(R) 98 system (copyright 1998, Gaussian, Inc.),
 the Gaussian(R) 94 system (copyright 1995, Gaussian, Inc.),
 the Gaussian 92(TM) system (copyright 1992, Gaussian, Inc.),
 the Gaussian 90(TM) system (copyright 1990, Gaussian, Inc.),
 the Gaussian 88(TM) system (copyright 1988, Gaussian, Inc.),
 the Gaussian 86(TM) system (copyright 1986, Carnegie Mellon
 University), and the Gaussian 82(TM) system (copyright 1983,
 Carnegie Mellon University). Gaussian is a federally registered
 trademark of Gaussian, Inc.
  
 This software contains proprietary and confidential information,
 including trade secrets, belonging to Gaussian, Inc.
  
 This software is provided under written license and may be
 used, copied, transmitted, or stored only in accord with that
 written license.
  
 The following legend is applicable only to US Government
 contracts under FAR:
  
                    RESTRICTED RIGHTS LEGEND
  
 Use, reproduction and disclosure by the US Government is
 subject to restrictions as set forth in subparagraphs (a)
 and (c) of the Commercial Computer Software - Restricted
 Rights clause in FAR 52.227-19.
  
 Gaussian, Inc.
 340 Quinnipiac St., Bldg. 40, Wallingford CT 06492
  
  
 ---------------------------------------------------------------
 Warning -- This program may not be used in any manner that
 competes with the business of Gaussian, Inc. or will provide
 assistance to any competitor of Gaussian, Inc.  The licensee
 of this program is prohibited from giving any competitor of
 Gaussian, Inc. access to this program.  By using this program,
 the user acknowledges that Gaussian, Inc. is engaged in the
 business of creating and licensing software in the field of
 computational chemistry and represents and warrants to the
 licensee that it is not a competitor of Gaussian, Inc. and that
 it will not use this program in any manner prohibited above.
 ---------------------------------------------------------------
  

 Cite this work as:
 Gaussian 16, Revision A.03,
 M. J. Frisch, G. W. Trucks, H. B. Schlegel, G. E. Scuseria, 
 M. A. Robb, J. R. Cheeseman, G. Scalmani, V. Barone, 
 G. A. Petersson, H. Nakatsuji, X. Li, M. Caricato, A. V. Marenich, 
 J. Bloino, B. G. Janesko, R. Gomperts, B. Mennucci, H. P. Hratchian, 
 J. V. Ortiz, A. F. Izmaylov, J. L. Sonnenberg, D. Williams-Young, 
 F. Ding, F. Lipparini, F. Egidi, J. Goings, B. Peng, A. Petrone, 
 T. Henderson, D. Ranasinghe, V. G. Zakrzewski, J. Gao, N. Rega, 
 G. Zheng, W. Liang, M. Hada, M. Ehara, K. Toyota, R. Fukuda, 
 J. Hasegawa, M. Ishida, T. Nakajima, Y. Honda, O. Kitao, H. Nakai, 
 T. Vreven, K. Throssell, J. A. Montgomery, Jr., J. E. Peralta, 
 F. Ogliaro, M. J. Bearpark, J. J. Heyd, E. N. Brothers, K. N. Kudin, 
 V. N. Staroverov, T. A. Keith, R. Kobayashi, J. Normand, 
 K. Raghavachari, A. P. Rendell, J. C. Burant, S. S. Iyengar, 
 J. Tomasi, M. Cossi, J. M. Millam, M. Klene, C. Adamo, R. Cammi, 
 J. W. Ochterski, R. L. Martin, K. Morokuma, O. Farkas, 
 J. B. Foresman, and D. J. Fox, Gaussian, Inc., Wallingford CT, 2016.
 
 ******************************************
 Gaussian 16:  AM64L-G16RevA.03 25-Dec-2016
                29-Aug-2022 
 ******************************************
 %chk=/scratch/rdu230/d3tales/high_throughput/runfiles//05XICU/gaussian/solv_acet
 onitrile/energy/anion2/energy_anion2.chk
 %mem=48GB
 %nprocshared=16
 Will use up to   16 processors via shared memory.
 ----------------------------------------------------------------------
 #P LC-wHPBE/Def2SVP SCRF=(PCM,Solvent=acetonitrile) iop(3/107=04994000
 00, 3/108=0499400000)
 ----------------------------------------------------------------------
 1/38=1,172=1/1;
 2/12=2,17=6,18=5,40=1/2;
 3/5=43,7=101,11=2,25=1,30=1,70=2201,72=2,74=-71,107=499400000,108=499400000/1,2,3;
 4//1;
 5/5=2,38=5,53=2/2;
 6/7=2,8=2,9=2,10=2,28=1/1;
 99/5=1,9=1/99;
 Leave Link    1 at Mon Aug 29 15:05:48 2022, MaxMem=  6442450944 cpu:               2.7 elap:               0.2
 (Enter /mnt/gpfs3_amd/share/apps/amd/gaussian/g16-A.03/g16/l101.exe)
 -----
 H2 O1
 -----
 Symbolic Z-matrix:
 Charge = -2 Multiplicity = 1
 O                    -0.0057    0.38516   0. 
 H                    -0.79608  -0.19468   0. 
 H                     0.80178  -0.19048   0. 
 
 ITRead=  0  0  0
 MicOpt= -1 -1 -1
 NAtoms=      3 NQM=        3 NQMF=       0 NMMI=      0 NMMIF=      0
                NMic=       0 NMicF=      0.
                    Isotopes and Nuclear Properties:
 (Nuclear quadrupole moments (NQMom) in fm**2, nuclear magnetic moments (NMagM)
  in nuclear magnetons)

  Atom         1           2           3
 IAtWgt=          16           1           1
 AtmWgt=  15.9949146   1.0078250   1.0078250
 NucSpn=           0           1           1
 AtZEff=  -0.0000000  -0.0000000  -0.0000000
 NQMom=    0.0000000   0.0000000   0.0000000
 NMagM=    0.0000000   2.7928460   2.7928460
 AtZNuc=   8.0000000   1.0000000   1.0000000
 Leave Link  101 at Mon Aug 29 15:05:49 2022, MaxMem=  6442450944 cpu:               1.1 elap:               0.1
 (Enter /mnt/gpfs3_amd/share/apps/amd/gaussian/g16-A.03/g16/l202.exe)
                          Input orientation:                          
 ---------------------------------------------------------------------
 Center     Atomic      Atomic             Coordinates (Angstroms)
 Number     Number       Type             X           Y           Z
 ---------------------------------------------------------------------
      1          8           0       -0.005703    0.385159    0.000000
      2          1           0       -0.796078   -0.194675    0.000000
      3          1           0        0.801781   -0.190484    0.000000
 ---------------------------------------------------------------------
                    Distance matrix (angstroms):
                    1          2          3
     1  O    0.000000
     2  H    0.980255   0.000000
     3  H    0.991663   1.597864   0.000000
 Stoichiometry    H2O(2-)
 Framework group  CS[SG(H2O)]
 Deg. of freedom     3
 Full point group                 CS      NOp   2
 Largest Abelian subgroup         CS      NOp   2
 Largest concise Abelian subgroup C1      NOp   1
                         Standard orientation:                         
 ---------------------------------------------------------------------
 Center     Atomic      Atomic             Coordinates (Angstroms)
 Number     Number       Type             X           Y           Z
 ---------------------------------------------------------------------
      1          8           0        0.000000    0.115560    0.000000
      2          1           0        0.798873   -0.452508   -0.000000
      3          1           0       -0.798873   -0.471975   -0.000000
 ---------------------------------------------------------------------
 Rotational constants (GHZ):         845.8824126         392.7591064         268.2196708
 Leave Link  202 at Mon Aug 29 15:05:49 2022, MaxMem=  6442450944 cpu:               0.0 elap:               0.0
 (Enter /mnt/gpfs3_amd/share/apps/amd/gaussian/g16-A.03/g16/l301.exe)
 Standard basis: def2SVP (5D, 7F)
 Ernie: Thresh=  0.10000D-02 Tol=  0.10000D-05 Strict=F.
 There are    19 symmetry adapted cartesian basis functions of A'  symmetry.
 There are     6 symmetry adapted cartesian basis functions of A"  symmetry.
 There are    18 symmetry adapted basis functions of A'  symmetry.
 There are     6 symmetry adapted basis functions of A"  symmetry.
    24 basis functions,    39 primitive gaussians,    25 cartesian basis functions
     6 alpha electrons        6 beta electrons
       nuclear repulsion energy         8.9188763696 Hartrees.
 IExCor=33909 DFT=T Ex+Corr=LC-wHPBE ExCW=0 ScaHFX=  1.000000
 ScaDFX=  1.000000  1.000000  1.000000  1.000000 ScalE2=  1.000000  1.000000
 IRadAn=      5 IRanWt=     -1 IRanGd=            0 ICorTp=0 IEmpDi=  4
 HFx  wShort=  0.000000 wLong=  0.499400 cFull=  0.000000 cShort=  0.000000 cLong=  1.000000
 DFx  wShort=  0.000000 wLong=  0.499400 cFull=  0.000000 cShort=  1.000000 cLong=  0.000000
 NAtoms=    3 NActive=    3 NUniq=    3 SFac= 1.00D+00 NAtFMM=   60 NAOKFM=F Big=F
 Integral buffers will be    131072 words long.
 Raffenetti 2 integral format.
 Two-electron integral symmetry is turned on.
 ------------------------------------------------------------------------------
 Polarizable Continuum Model (PCM)
 =================================
 Model                : PCM.
 Atomic radii         : UFF (Universal Force Field).
 Polarization charges : Total charges.
 Charge compensation  : None.
 Solution method      : On-the-fly selection.
 Cavity type          : Scaled VdW (van der Waals Surface) (Alpha=1.100).
 Cavity algorithm     : GePol (No added spheres)
                        Default sphere list used, NSphG=    3.
                        Lebedev-Laikov grids with approx.  5.0 points / Ang**2.
                        Smoothing algorithm: York/Karplus (Gamma=1.0000).
                        Polarization charges: spherical gaussians, with
                                              point-specific exponents (IZeta= 3).
                        Self-potential: point-specific (ISelfS= 7).
                        Self-field    : sphere-specific E.n sum rule (ISelfD= 2).
 Solvent              : Acetonitrile, Eps=  35.688000 Eps(inf)=   1.806874
 ------------------------------------------------------------------------------
 Spheres list:
 ISph  on   Nord     Re0    Alpha      Xe            Ye            Ze
    1   O      1    1.7500  1.100      0.000000      0.115560      0.000000
    2   H      2    1.4430  1.100      0.798873     -0.452508     -0.000000
    3   H      3    1.4430  1.100     -0.798873     -0.471975     -0.000000
 ------------------------------------------------------------------------------
 GePol: Number of generator spheres                  =       3
 GePol: Total number of spheres                      =       3
 GePol: Number of exposed spheres                    =       3 (100.00%)
 GePol: Number of points                             =     394
 GePol: Average weight of points                     =       0.14
 GePol: Minimum weight of points                     =   0.43D-06
 GePol: Maximum weight of points                     =    0.20212
 GePol: Number of points with low weight             =      16
 GePol: Fraction of low-weight points (<1% of avg)   =       4.06%
 GePol: Cavity surface area                          =     56.289 Ang**2
 GePol: Cavity volume                                =     37.944 Ang**3
 Leave Link  301 at Mon Aug 29 15:05:49 2022, MaxMem=  6442450944 cpu:               0.5 elap:               0.0
 (Enter /mnt/gpfs3_amd/share/apps/amd/gaussian/g16-A.03/g16/l302.exe)
 NPDir=0 NMtPBC=     1 NCelOv=     1 NCel=       1 NClECP=     1 NCelD=      1
         NCelK=      1 NCelE2=     1 NClLst=     1 CellRange=     0.0.
 One-electron integrals computed using PRISM.
 One-electron integral symmetry used in STVInt
   2 Symmetry operations used in ECPInt.
 ECPInt:  NShTT=      78 NPrTT=     272 LenC2=      79 LenP2D=     271.
 LDataN:  DoStor=T MaxTD1= 4 Len=   56
 NBasis=    24 RedAO= T EigKep=  4.07D-02  NBF=    18     6
 NBsUse=    24 1.00D-06 EigRej= -1.00D+00 NBFU=    18     6
 Precomputing XC quadrature grid using
 IXCGrd= 4 IRadAn=           5 IRanWt=          -1 IRanGd=           0 AccXCQ= 0.00D+00.
 Generated NRdTot=       0 NPtTot=           0 NUsed=           0 NTot=          32
 NSgBfM=    25    25    25    25    25 MxSgAt=     3 MxSgA2=     3.
 Leave Link  302 at Mon Aug 29 15:05:49 2022, MaxMem=  6442450944 cpu:               1.3 elap:               0.1
 (Enter /mnt/gpfs3_amd/share/apps/amd/gaussian/g16-A.03/g16/l303.exe)
 DipDrv:  MaxL=1.
 Leave Link  303 at Mon Aug 29 15:05:49 2022, MaxMem=  6442450944 cpu:               0.1 elap:               0.0
 (Enter /mnt/gpfs3_amd/share/apps/amd/gaussian/g16-A.03/g16/l401.exe)
 ExpMin= 1.22D-01 ExpMax= 2.27D+03 ExpMxC= 3.41D+02 IAcc=3 IRadAn=         5 AccDes= 0.00D+00
 Harris functional with IExCor=33909 and IRadAn=       5 diagonalized for initial guess.
 HarFok:  IExCor=33909 AccDes= 0.00D+00 IRadAn=         5 IDoV= 1 UseB2=F ITyADJ=14
 ICtDFT=  3500011 ScaDFX=  1.000000  1.000000  1.000000  1.000000
 FoFCou: FMM=F IPFlag=           0 FMFlag=      100000 FMFlg1=           0
         NFxFlg=           0 DoJE=T BraDBF=F KetDBF=T FulRan=T
         wScrn=  0.000000 ICntrl=       500 IOpCl=  0 I1Cent=   200000004 NGrid=           0
         NMat0=    1 NMatS0=      1 NMatT0=    0 NMatD0=    1 NMtDS0=    0 NMtDT0=    0
 Petite list used in FoFCou.
 Harris En= -73.6334052621511    
 JPrj=0 DoOrth=F DoCkMO=F.
 Initial guess orbital symmetries:
       Occupied  (A') (A') (A') (A') (A") (A')
       Virtual   (A') (A') (A') (A') (A") (A') (A') (A") (A') (A")
                 (A') (A') (A') (A") (A") (A') (A') (A')
 The electronic state of the initial guess is 1-A'.
 Leave Link  401 at Mon Aug 29 15:05:49 2022, MaxMem=  6442450944 cpu:               2.0 elap:               0.1
 (Enter /mnt/gpfs3_amd/share/apps/amd/gaussian/g16-A.03/g16/l502.exe)
 Keep R1 ints in memory in symmetry-blocked form, NReq=13884302.
 FoFCou: FMM=F IPFlag=           0 FMFlag=           0 FMFlg1=           0
         NFxFlg=           0 DoJE=F BraDBF=F KetDBF=F FulRan=T
         wScrn=  0.000000 ICntrl=       600 IOpCl=  0 I1Cent=           0 NGrid=           0
         NMat0=    1 NMatS0=    300 NMatT0=    0 NMatD0=    1 NMtDS0=    0 NMtDT0=    0
 Petite list used in FoFCou.
 Closed shell SCF:
 Using DIIS extrapolation, IDIIS=  1040.
 NGot=  6442450944 LenX=  6442423464 LenY=  6442422398
 Requested convergence on RMS density matrix=1.00D-08 within 128 cycles.
 Requested convergence on MAX density matrix=1.00D-06.
 Requested convergence on             energy=1.00D-06.
 No special actions if energy rises.

 Cycle   1  Pass 1  IDiag  1:
 Inv3:  Mode=1 IEnd=      465708.
 Iteration    1 A*A^-1 deviation from unit magnitude is 1.67D-15 for      5.
 Iteration    1 A*A^-1 deviation from orthogonality  is 1.44D-15 for    300      5.
 Iteration    1 A^-1*A deviation from unit magnitude is 1.55D-15 for     94.
 Iteration    1 A^-1*A deviation from orthogonality  is 1.58D-15 for    362    300.
 E= -76.1494046400162    
 DIIS: error= 5.06D-02 at cycle   1 NSaved=   1.
 NSaved= 1 IEnMin= 1 EnMin= -76.1494046400162     IErMin= 1 ErrMin= 5.06D-02
 ErrMax= 5.06D-02  0.00D+00 EMaxC= 1.00D-01 BMatC= 9.11D-02 BMatP= 9.11D-02
 IDIUse=3 WtCom= 4.94D-01 WtEn= 5.06D-01
 Coeff-Com:  0.100D+01
 Coeff-En:   0.100D+01
 Coeff:      0.100D+01
 Gap=     0.300 Goal=   None    Shift=    0.000
 GapD=    0.300 DampG=1.000 DampE=0.500 DampFc=0.5000 IDamp=-1.
 Damping current iteration by 5.00D-01
 RMSDP=3.58D-02 MaxDP=4.38D-01              OVMax= 1.62D-01

 Cycle   2  Pass 1  IDiag  1:
 E= -76.1883021135207     Delta-E=       -0.038897473505 Rises=F Damp=T
 DIIS: error= 8.37D-03 at cycle   2 NSaved=   2.
 NSaved= 2 IEnMin= 2 EnMin= -76.1883021135207     IErMin= 2 ErrMin= 8.37D-03
 ErrMax= 8.37D-03  0.00D+00 EMaxC= 1.00D-01 BMatC= 1.55D-03 BMatP= 9.11D-02
 IDIUse=3 WtCom= 9.16D-01 WtEn= 8.37D-02
 Coeff-Com: -0.221D-01 0.102D+01
 Coeff-En:   0.000D+00 0.100D+01
 Coeff:     -0.203D-01 0.102D+01
 Gap=     0.293 Goal=   None    Shift=    0.000
 RMSDP=6.67D-03 MaxDP=6.38D-02 DE=-3.89D-02 OVMax= 6.28D-02

 Cycle   3  Pass 1  IDiag  1:
 E= -76.2256902148927     Delta-E=       -0.037388101372 Rises=F Damp=F
 DIIS: error= 1.99D-03 at cycle   3 NSaved=   3.
 NSaved= 3 IEnMin= 3 EnMin= -76.2256902148927     IErMin= 3 ErrMin= 1.99D-03
 ErrMax= 1.99D-03  0.00D+00 EMaxC= 1.00D-01 BMatC= 1.19D-04 BMatP= 1.55D-03
 IDIUse=3 WtCom= 9.80D-01 WtEn= 1.99D-02
 Coeff-Com:  0.256D-01-0.106D+00 0.108D+01
 Coeff-En:   0.000D+00 0.000D+00 0.100D+01
 Coeff:      0.251D-01-0.104D+00 0.108D+01
 Gap=     0.288 Goal=   None    Shift=    0.000
 RMSDP=1.08D-03 MaxDP=1.12D-02 DE=-3.74D-02 OVMax= 4.51D-03

 Cycle   4  Pass 1  IDiag  1:
 E= -76.2258461503117     Delta-E=       -0.000155935419 Rises=F Damp=F
 DIIS: error= 4.37D-04 at cycle   4 NSaved=   4.
 NSaved= 4 IEnMin= 4 EnMin= -76.2258461503117     IErMin= 4 ErrMin= 4.37D-04
 ErrMax= 4.37D-04  0.00D+00 EMaxC= 1.00D-01 BMatC= 5.52D-06 BMatP= 1.19D-04
 IDIUse=3 WtCom= 9.96D-01 WtEn= 4.37D-03
 Coeff-Com:  0.412D-02-0.315D-01-0.472D-01 0.107D+01
 Coeff-En:   0.000D+00 0.000D+00 0.000D+00 0.100D+01
 Coeff:      0.410D-02-0.314D-01-0.470D-01 0.107D+01
 Gap=     0.288 Goal=   None    Shift=    0.000
 RMSDP=4.11D-04 MaxDP=5.70D-03 DE=-1.56D-04 OVMax= 1.86D-03

 Cycle   5  Pass 1  IDiag  1:
 E= -76.2258566869137     Delta-E=       -0.000010536602 Rises=F Damp=F
 DIIS: error= 9.17D-05 at cycle   5 NSaved=   5.
 NSaved= 5 IEnMin= 5 EnMin= -76.2258566869137     IErMin= 5 ErrMin= 9.17D-05
 ErrMax= 9.17D-05  0.00D+00 EMaxC= 1.00D-01 BMatC= 2.61D-07 BMatP= 5.52D-06
 IDIUse=1 WtCom= 1.00D+00 WtEn= 0.00D+00
 Coeff-Com: -0.969D-03 0.582D-02-0.327D-01-0.608D-01 0.109D+01
 Coeff:     -0.969D-03 0.582D-02-0.327D-01-0.608D-01 0.109D+01
 Gap=     0.288 Goal=   None    Shift=    0.000
 RMSDP=3.09D-04 MaxDP=3.83D-03 DE=-1.05D-05 OVMax= 1.44D-03

 Cycle   6  Pass 1  IDiag  1:
 E= -76.2258589999010     Delta-E=       -0.000002312987 Rises=F Damp=F
 DIIS: error= 8.36D-05 at cycle   6 NSaved=   6.
 NSaved= 6 IEnMin= 6 EnMin= -76.2258589999010     IErMin= 6 ErrMin= 8.36D-05
 ErrMax= 8.36D-05  0.00D+00 EMaxC= 1.00D-01 BMatC= 1.57D-07 BMatP= 2.61D-07
 IDIUse=1 WtCom= 1.00D+00 WtEn= 0.00D+00
 Coeff-Com:  0.429D-03-0.258D-02 0.171D-01 0.125D-01-0.532D+00 0.150D+01
 Coeff:      0.429D-03-0.258D-02 0.171D-01 0.125D-01-0.532D+00 0.150D+01
 Gap=     0.288 Goal=   None    Shift=    0.000
 RMSDP=3.93D-04 MaxDP=4.65D-03 DE=-2.31D-06 OVMax= 1.84D-03

 Cycle   7  Pass 1  IDiag  1:
 E= -76.2258616251180     Delta-E=       -0.000002625217 Rises=F Damp=F
 DIIS: error= 7.81D-05 at cycle   7 NSaved=   7.
 NSaved= 7 IEnMin= 7 EnMin= -76.2258616251180     IErMin= 7 ErrMin= 7.81D-05
 ErrMax= 7.81D-05  0.00D+00 EMaxC= 1.00D-01 BMatC= 1.37D-07 BMatP= 1.57D-07
 IDIUse=1 WtCom= 1.00D+00 WtEn= 0.00D+00
 Large coefficients: NSaved=  7 BigCof=   12.58 CofMax=   10.00 Det=-4.97D-10
 Inversion failed.  Reducing to  6 matrices.
 Coeff-Com: -0.104D-03-0.108D-01 0.504D-01 0.516D+00-0.736D+01 0.781D+01
 Coeff:     -0.104D-03-0.108D-01 0.504D-01 0.516D+00-0.736D+01 0.781D+01
 Gap=     0.288 Goal=   None    Shift=    0.000
 RMSDP=2.64D-03 MaxDP=3.14D-02 DE=-2.63D-06 OVMax= 1.24D-02

 Cycle   8  Pass 1  IDiag  1:
 E= -76.2258749175514     Delta-E=       -0.000013292433 Rises=F Damp=F
 DIIS: error= 4.41D-05 at cycle   8 NSaved=   7.
 NSaved= 7 IEnMin= 7 EnMin= -76.2258749175514     IErMin= 7 ErrMin= 4.41D-05
 ErrMax= 4.41D-05  0.00D+00 EMaxC= 1.00D-01 BMatC= 4.68D-08 BMatP= 1.37D-07
 IDIUse=1 WtCom= 1.00D+00 WtEn= 0.00D+00
 Coeff-Com:  0.781D-03-0.839D-02-0.339D-02 0.103D+00 0.160D+01-0.315D+01
 Coeff-Com:  0.246D+01
 Coeff:      0.781D-03-0.839D-02-0.339D-02 0.103D+00 0.160D+01-0.315D+01
 Coeff:      0.246D+01
 Gap=     0.288 Goal=   None    Shift=    0.000
 RMSDP=3.17D-03 MaxDP=3.81D-02 DE=-1.33D-05 OVMax= 1.49D-02

 Cycle   9  Pass 1  IDiag  1:
 E= -76.2258808402764     Delta-E=       -0.000005922725 Rises=F Damp=F
 DIIS: error= 8.87D-06 at cycle   9 NSaved=   8.
 NSaved= 8 IEnMin= 8 EnMin= -76.2258808402764     IErMin= 8 ErrMin= 8.87D-06
 ErrMax= 8.87D-06  0.00D+00 EMaxC= 1.00D-01 BMatC= 2.42D-09 BMatP= 4.68D-08
 IDIUse=1 WtCom= 1.00D+00 WtEn= 0.00D+00
 Coeff-Com: -0.106D-03 0.151D-02 0.125D-01-0.144D+00 0.752D+00-0.457D+00
 Coeff-Com: -0.353D+00 0.119D+01
 Coeff:     -0.106D-03 0.151D-02 0.125D-01-0.144D+00 0.752D+00-0.457D+00
 Coeff:     -0.353D+00 0.119D+01
 Gap=     0.288 Goal=   None    Shift=    0.000
 RMSDP=4.53D-05 MaxDP=5.38D-04 DE=-5.92D-06 OVMax= 2.06D-04

 Cycle  10  Pass 1  IDiag  1:
 E= -76.2258808393340     Delta-E=        0.000000000942 Rises=F Damp=F
 DIIS: error= 2.48D-06 at cycle  10 NSaved=   9.
 NSaved= 9 IEnMin= 8 EnMin= -76.2258808402764     IErMin= 9 ErrMin= 2.48D-06
 ErrMax= 2.48D-06  0.00D+00 EMaxC= 1.00D-01 BMatC= 2.11D-10 BMatP= 2.42D-09
 IDIUse=1 WtCom= 1.00D+00 WtEn= 0.00D+00
 Coeff-Com: -0.184D-03 0.165D-02 0.537D-03-0.340D-01-0.630D-01 0.201D+00
 Coeff-Com: -0.224D+00 0.963D-01 0.102D+01
 Coeff:     -0.184D-03 0.165D-02 0.537D-03-0.340D-01-0.630D-01 0.201D+00
 Coeff:     -0.224D+00 0.963D-01 0.102D+01
 Gap=     0.288 Goal=   None    Shift=    0.000
 RMSDP=1.42D-04 MaxDP=1.73D-03 DE= 9.42D-10 OVMax= 6.68D-04

 Cycle  11  Pass 1  IDiag  1:
 E= -76.2258808504630     Delta-E=       -0.000000011129 Rises=F Damp=F
 DIIS: error= 2.38D-07 at cycle  11 NSaved=  10.
 NSaved=10 IEnMin=10 EnMin= -76.2258808504630     IErMin=10 ErrMin= 2.38D-07
 ErrMax= 2.38D-07  0.00D+00 EMaxC= 1.00D-01 BMatC= 2.02D-12 BMatP= 2.11D-10
 IDIUse=1 WtCom= 1.00D+00 WtEn= 0.00D+00
 Coeff-Com:  0.172D-04-0.158D-03-0.717D-03 0.665D-02-0.360D-02-0.164D-01
 Coeff-Com:  0.293D-01-0.196D-01-0.674D-01 0.107D+01
 Coeff:      0.172D-04-0.158D-03-0.717D-03 0.665D-02-0.360D-02-0.164D-01
 Coeff:      0.293D-01-0.196D-01-0.674D-01 0.107D+01
 Gap=     0.288 Goal=   None    Shift=    0.000
 RMSDP=2.47D-06 MaxDP=2.93D-05 DE=-1.11D-08 OVMax= 1.17D-05

 Cycle  12  Pass 1  IDiag  1:
 E= -76.2258808504695     Delta-E=       -0.000000000006 Rises=F Damp=F
 DIIS: error= 5.91D-08 at cycle  12 NSaved=  11.
 NSaved=11 IEnMin=11 EnMin= -76.2258808504695     IErMin=11 ErrMin= 5.91D-08
 ErrMax= 5.91D-08  0.00D+00 EMaxC= 1.00D-01 BMatC= 1.19D-13 BMatP= 2.02D-12
 IDIUse=1 WtCom= 1.00D+00 WtEn= 0.00D+00
 Coeff-Com:  0.661D-06-0.689D-05 0.164D-03-0.574D-03 0.910D-03 0.434D-03
 Coeff-Com: -0.132D-02-0.315D-02-0.632D-02-0.129D+00 0.114D+01
 Coeff:      0.661D-06-0.689D-05 0.164D-03-0.574D-03 0.910D-03 0.434D-03
 Coeff:     -0.132D-02-0.315D-02-0.632D-02-0.129D+00 0.114D+01
 Gap=     0.288 Goal=   None    Shift=    0.000
 RMSDP=3.97D-07 MaxDP=4.81D-06 DE=-6.49D-12 OVMax= 1.86D-06

 Cycle  13  Pass 1  IDiag  1:
 E= -76.2258808504699     Delta-E=       -0.000000000000 Rises=F Damp=F
 DIIS: error= 7.97D-09 at cycle  13 NSaved=  12.
 NSaved=12 IEnMin=12 EnMin= -76.2258808504699     IErMin=12 ErrMin= 7.97D-09
 ErrMax= 7.97D-09  0.00D+00 EMaxC= 1.00D-01 BMatC= 2.95D-15 BMatP= 1.19D-13
 IDIUse=1 WtCom= 1.00D+00 WtEn= 0.00D+00
 Coeff-Com: -0.464D-06 0.493D-05-0.260D-04-0.361D-05 0.450D-04-0.755D-04
 Coeff-Com: -0.140D-03 0.135D-02 0.278D-02-0.723D-02-0.199D+00 0.120D+01
 Coeff:     -0.464D-06 0.493D-05-0.260D-04-0.361D-05 0.450D-04-0.755D-04
 Coeff:     -0.140D-03 0.135D-02 0.278D-02-0.723D-02-0.199D+00 0.120D+01
 Gap=     0.288 Goal=   None    Shift=    0.000
 RMSDP=1.75D-07 MaxDP=2.13D-06 DE=-3.84D-13 OVMax= 8.15D-07

 Cycle  14  Pass 1  IDiag  1:
 E= -76.2258808504697     Delta-E=        0.000000000000 Rises=F Damp=F
 DIIS: error= 2.46D-09 at cycle  14 NSaved=  13.
 NSaved=13 IEnMin=12 EnMin= -76.2258808504699     IErMin=13 ErrMin= 2.46D-09
 ErrMax= 2.46D-09  0.00D+00 EMaxC= 1.00D-01 BMatC= 1.26D-16 BMatP= 2.95D-15
 IDIUse=1 WtCom= 1.00D+00 WtEn= 0.00D+00
 Coeff-Com:  0.165D-06-0.172D-05 0.547D-05 0.185D-04-0.779D-04 0.507D-04
 Coeff-Com:  0.885D-04-0.569D-03-0.370D-03 0.568D-02 0.387D-01-0.445D+00
 Coeff-Com:  0.140D+01
 Coeff:      0.165D-06-0.172D-05 0.547D-05 0.185D-04-0.779D-04 0.507D-04
 Coeff:      0.885D-04-0.569D-03-0.370D-03 0.568D-02 0.387D-01-0.445D+00
 Coeff:      0.140D+01
 Gap=     0.288 Goal=   None    Shift=    0.000
 RMSDP=3.93D-08 MaxDP=4.74D-07 DE= 1.99D-13 OVMax= 1.83D-07

 Cycle  15  Pass 1  IDiag  1:
 E= -76.2258808504698     Delta-E=       -0.000000000000 Rises=F Damp=F
 DIIS: error= 2.82D-10 at cycle  15 NSaved=  14.
 NSaved=14 IEnMin=12 EnMin= -76.2258808504699     IErMin=14 ErrMin= 2.82D-10
 ErrMax= 2.82D-10  0.00D+00 EMaxC= 1.00D-01 BMatC= 2.47D-18 BMatP= 1.26D-16
 IDIUse=1 WtCom= 1.00D+00 WtEn= 0.00D+00
 Coeff-Com: -0.356D-07 0.324D-06-0.123D-06-0.755D-05 0.275D-04-0.152D-04
 Coeff-Com: -0.215D-04 0.933D-04-0.128D-04-0.133D-02-0.444D-03 0.538D-01
 Coeff-Com: -0.291D+00 0.124D+01
 Coeff:     -0.356D-07 0.324D-06-0.123D-06-0.755D-05 0.275D-04-0.152D-04
 Coeff:     -0.215D-04 0.933D-04-0.128D-04-0.133D-02-0.444D-03 0.538D-01
 Coeff:     -0.291D+00 0.124D+01
 Gap=     0.288 Goal=   None    Shift=    0.000
 RMSDP=6.11D-09 MaxDP=7.42D-08 DE=-8.53D-14 OVMax= 2.90D-08

 Error on total polarization charges =  0.06817
 SCF Done:  E(RLC-wHPBE) =  -76.2258808505     A.U. after   15 cycles
            NFock= 15  Conv=0.61D-08     -V/T= 1.9968
 KE= 7.646682525300D+01 PE=-2.049373152299D+02 EE= 4.332573275679D+01
 Leave Link  502 at Mon Aug 29 15:05:50 2022, MaxMem=  6442450944 cpu:              25.6 elap:               1.6
 (Enter /mnt/gpfs3_amd/share/apps/amd/gaussian/g16-A.03/g16/l601.exe)
 Copying SCF densities to generalized density rwf, IOpCl= 0 IROHF=0.

 **********************************************************************

            Population analysis using the SCF density.

 **********************************************************************

 Orbital symmetries:
       Occupied  (A') (A') (A') (A') (A") (A')
       Virtual   (A') (A') (A') (A') (A") (A') (A') (A") (A') (A")
                 (A') (A') (A') (A") (A") (A') (A') (A')
 The electronic state is 1-A'.
 Alpha  occ. eigenvalues --  -18.84227  -0.99132  -0.51654  -0.38760  -0.30936
 Alpha  occ. eigenvalues --   -0.05255
 Alpha virt. eigenvalues --    0.23569   0.82123   0.85706   1.14826   1.17416
 Alpha virt. eigenvalues --    1.23874   1.34014   1.62513   1.73949   1.85155
 Alpha virt. eigenvalues --    2.03589   2.47203   2.51708   3.20739   3.28348
 Alpha virt. eigenvalues --    3.42328   3.78954   4.05669
          Condensed to atoms (all electrons):
               1          2          3
     1  O   10.809786  -1.202119  -1.460422
     2  H   -1.202119   2.147085   0.886513
     3  H   -1.460422   0.886513   2.595185
 Mulliken charges:
               1
     1  O   -0.147245
     2  H   -0.831479
     3  H   -1.021276
 Sum of Mulliken charges =  -2.00000
 Mulliken charges with hydrogens summed into heavy atoms:
               1
     1  O   -2.000000
 Electronic spatial extent (au):  <R**2>=             45.7394
 Charge=             -2.0000 electrons
 Dipole moment (field-independent basis, Debye):
    X=              0.9441    Y=              4.0543    Z=              0.0000  Tot=              4.1628
 Quadrupole moment (field-independent basis, Debye-Ang):
   XX=            -20.2036   YY=            -17.9877   ZZ=            -14.6324
   XY=             -0.6986   XZ=              0.0000   YZ=             -0.0000
 Traceless Quadrupole moment (field-independent basis, Debye-Ang):
   XX=             -2.5957   YY=             -0.3798   ZZ=              2.9755
   XY=             -0.6986   XZ=              0.0000   YZ=             -0.0000
 Octapole moment (field-independent basis, Debye-Ang**2):
  XXX=              3.0010  YYY=             14.3581  ZZZ=              0.0000  XYY=              1.0966
  XXY=              7.5148  XXZ=              0.0000  XZZ=              0.6958  YZZ=              4.1108
  YYZ=              0.0000  XYZ=              0.0000
 Hexadecapole moment (field-independent basis, Debye-Ang**3):
 XXXX=            -60.5039 YYYY=            -39.5378 ZZZZ=            -20.8929 XXXY=             -1.9442
 XXXZ=             -0.0000 YYYX=             -1.6377 YYYZ=             -0.0000 ZZZX=             -0.0000
 ZZZY=             -0.0000 XXYY=            -17.2269 XXZZ=            -12.7934 YYZZ=             -9.9300
 XXYZ=             -0.0000 YYXZ=             -0.0000 ZZXY=             -0.4745
 N-N= 8.918876369637D+00 E-N=-2.049373152263D+02  KE= 7.646682525300D+01
 Symmetry A'   KE= 7.209461739585D+01
 Symmetry A"   KE= 4.372207857153D+00
 No NMR shielding tensors so no spin-rotation constants.
 Leave Link  601 at Mon Aug 29 15:05:51 2022, MaxMem=  6442450944 cpu:               1.1 elap:               0.1
 (Enter /mnt/gpfs3_amd/share/apps/amd/gaussian/g16-A.03/g16/l9999.exe)

 Test job not archived.
 1\1\GINC-MCC-LOGIN002\SP\RLC-wHPBE\def2SVP\H2O1(2-)\RDU230\29-Aug-2022
 \0\\#P LC-wHPBE/Def2SVP SCRF=(PCM,Solvent=acetonitrile) iop(3/107=0499
 400000, 3/108=0499400000)\\H2 O1\\-2,1\O,0,-0.005703,0.385159,0.\H,0,-
 0.796078,-0.194675,0.\H,0,0.801781,-0.190484,0.\\Version=AM64L-G16RevA
 .03\State=1-A'\HF=-76.2258809\RMSD=6.107e-09\Dipole=-0.3950282,1.58942
 92,0.\Quadrupole=-1.9448691,-0.267333,2.2122021,0.494804,0.,0.\PG=CS [
 SG(H2O1)]\\@


 GOD GAVE US TWO ENDS... ONE TO SIT ON...    
 AND THE OTHER TO THINK WITH...              
 YOUR SUCCESS DEPENDS UPON WHICH END YOU     
 USE THE MOST...                             
                                             
 IT'S A CASE OF HEADS YOU WIN TAILS YOU LOSE.
          SOURCE UNKNOWN(IT'S JUST AS WELL.) 
 Job cpu time:       0 days  0 hours  0 minutes 34.6 seconds.
 Elapsed time:       0 days  0 hours  0 minutes  2.3 seconds.
 File lengths (MBytes):  RWF=    136 Int=      0 D2E=      0 Chk=     16 Scr=     16
 Normal termination of Gaussian 16 at Mon Aug 29 15:05:51 2022.
