 Entering Gaussian System, Link 0=/mnt/gpfs3_amd/share/apps/amd/gaussian/g16-A.03/g16/g16
 Input=/scratch/rdu230/d3tales/high_throughput/runfiles//05XICU/gaussian/gas_phase/opt/opt_cation1.com
 Output=/scratch/rdu230/d3tales/high_throughput/runfiles//05XICU/gaussian/gas_phase/opt/opt_cation1.log
 Initial command:
 /mnt/gpfs3_amd/share/apps/amd/gaussian/g16-A.03/g16/l1.exe "/scratch/rdu230/d3tales/high_throughput/runfiles/05XICU/gaussian/gas_phase/opt/Gau-1327105.inp" -scrdir="/scratch/rdu230/d3tales/high_throughput/runfiles/05XICU/gaussian/gas_phase/opt/"
 Entering Link 1 = /mnt/gpfs3_amd/share/apps/amd/gaussian/g16-A.03/g16/l1.exe PID=   1327106.
  
 Copyright (c) 1988,1990,1992,1993,1995,1998,2003,2009,2016,
            Gaussian, Inc.  All Rights Reserved.
  
 This is part of the Gaussian(R) 16 program.  It is based on
 the Gaussian(R) 09 system (copyright 2009, Gaussian, Inc.),
 the Gaussian(R) 03 system (copyright 2003, Gaussian, Inc.),
 the Gaussian(R) 98 system (copyright 1998, Gaussian, Inc.),
 the Gaussian(R) 94 system (copyright 1995, Gaussian, Inc.),
 the Gaussian 92(TM) system (copyright 1992, Gaussian, Inc.),
 the Gaussian 90(TM) system (copyright 1990, Gaussian, Inc.),
 the Gaussian 88(TM) system (copyright 1988, Gaussian, Inc.),
 the Gaussian 86(TM) system (copyright 1986, Carnegie Mellon
 University), and the Gaussian 82(TM) system (copyright 1983,
 Carnegie Mellon University). Gaussian is a federally registered
 trademark of Gaussian, Inc.
  
 This software contains proprietary and confidential information,
 including trade secrets, belonging to Gaussian, Inc.
  
 This software is provided under written license and may be
 used, copied, transmitted, or stored only in accord with that
 written license.
  
 The following legend is applicable only to US Government
 contracts under FAR:
  
                    RESTRICTED RIGHTS LEGEND
  
 Use, reproduction and disclosure by the US Government is
 subject to restrictions as set forth in subparagraphs (a)
 and (c) of the Commercial Computer Software - Restricted
 Rights clause in FAR 52.227-19.
  
 Gaussian, Inc.
 340 Quinnipiac St., Bldg. 40, Wallingford CT 06492
  
  
 ---------------------------------------------------------------
 Warning -- This program may not be used in any manner that
 competes with the business of Gaussian, Inc. or will provide
 assistance to any competitor of Gaussian, Inc.  The licensee
 of this program is prohibited from giving any competitor of
 Gaussian, Inc. access to this program.  By using this program,
 the user acknowledges that Gaussian, Inc. is engaged in the
 business of creating and licensing software in the field of
 computational chemistry and represents and warrants to the
 licensee that it is not a competitor of Gaussian, Inc. and that
 it will not use this program in any manner prohibited above.
 ---------------------------------------------------------------
  

 Cite this work as:
 Gaussian 16, Revision A.03,
 M. J. Frisch, G. W. Trucks, H. B. Schlegel, G. E. Scuseria, 
 M. A. Robb, J. R. Cheeseman, G. Scalmani, V. Barone, 
 G. A. Petersson, H. Nakatsuji, X. Li, M. Caricato, A. V. Marenich, 
 J. Bloino, B. G. Janesko, R. Gomperts, B. Mennucci, H. P. Hratchian, 
 J. V. Ortiz, A. F. Izmaylov, J. L. Sonnenberg, D. Williams-Young, 
 F. Ding, F. Lipparini, F. Egidi, J. Goings, B. Peng, A. Petrone, 
 T. Henderson, D. Ranasinghe, V. G. Zakrzewski, J. Gao, N. Rega, 
 G. Zheng, W. Liang, M. Hada, M. Ehara, K. Toyota, R. Fukuda, 
 J. Hasegawa, M. Ishida, T. Nakajima, Y. Honda, O. Kitao, H. Nakai, 
 T. Vreven, K. Throssell, J. A. Montgomery, Jr., J. E. Peralta, 
 F. Ogliaro, M. J. Bearpark, J. J. Heyd, E. N. Brothers, K. N. Kudin, 
 V. N. Staroverov, T. A. Keith, R. Kobayashi, J. Normand, 
 K. Raghavachari, A. P. Rendell, J. C. Burant, S. S. Iyengar, 
 J. Tomasi, M. Cossi, J. M. Millam, M. Klene, C. Adamo, R. Cammi, 
 J. W. Ochterski, R. L. Martin, K. Morokuma, O. Farkas, 
 J. B. Foresman, and D. J. Fox, Gaussian, Inc., Wallingford CT, 2016.
 
 ******************************************
 Gaussian 16:  AM64L-G16RevA.03 25-Dec-2016
                10-Aug-2022 
 ******************************************
 %chk=/scratch/rdu230/d3tales/high_throughput/runfiles//05XICU/gaussian/gas_phase
 /opt/opt_cation1.chk
 %mem=48GB
 %nprocshared=16
 Will use up to   16 processors via shared memory.
 ----------------------------------------------------------------------
 #P LC-wHPBE/Def2SVP iop(3/107=0499400000, 3/108=0499400000) opt scf(ma
 xcyc=512)
 ----------------------------------------------------------------------
 1/18=20,19=15,26=3,38=1/1,3;
 2/9=110,12=2,17=6,18=5,40=1/2;
 3/5=43,7=101,11=2,25=1,30=1,71=1,74=-71,107=499400000,108=499400000/1,2,3;
 4//1;
 5/5=2,7=512,38=5/2;
 6/7=2,8=2,9=2,10=2,28=1/1;
 7//1,2,3,16;
 1/18=20,19=15,26=3/3(2);
 2/9=110/2;
 99//99;
 2/9=110/2;
 3/5=43,7=101,11=2,25=1,30=1,71=1,74=-71,107=499400000,108=499400000/1,2,3;
 4/5=5,16=3,69=1/1;
 5/5=2,7=512,38=5/2;
 7//1,2,3,16;
 1/18=20,19=15,26=3/3(-5);
 2/9=110/2;
 6/7=2,8=2,9=2,10=2,19=2,28=1/1;
 99/9=1/99;
 Leave Link    1 at Wed Aug 10 17:03:26 2022, MaxMem=  6442450944 cpu:               4.3 elap:               0.3
 (Enter /mnt/gpfs3_amd/share/apps/amd/gaussian/g16-A.03/g16/l101.exe)
 -----
 H2 O1
 -----
 Symbolic Z-matrix:
 Charge =  1 Multiplicity = 2
 O                    -0.00095   0.40154   0. 
 H                    -0.78985  -0.20119   0. 
 H                     0.7908   -0.20035   0. 
 
 ITRead=  0  0  0
 MicOpt= -1 -1 -1
 NAtoms=      3 NQM=        3 NQMF=       0 NMMI=      0 NMMIF=      0
                NMic=       0 NMicF=      0.
                    Isotopes and Nuclear Properties:
 (Nuclear quadrupole moments (NQMom) in fm**2, nuclear magnetic moments (NMagM)
  in nuclear magnetons)

  Atom         1           2           3
 IAtWgt=          16           1           1
 AtmWgt=  15.9949146   1.0078250   1.0078250
 NucSpn=           0           1           1
 AtZEff=  -0.0000000  -0.0000000  -0.0000000
 NQMom=    0.0000000   0.0000000   0.0000000
 NMagM=    0.0000000   2.7928460   2.7928460
 AtZNuc=   8.0000000   1.0000000   1.0000000
 Leave Link  101 at Wed Aug 10 17:03:27 2022, MaxMem=  6442450944 cpu:               3.2 elap:               0.2
 (Enter /mnt/gpfs3_amd/share/apps/amd/gaussian/g16-A.03/g16/l103.exe)

 GradGradGradGradGradGradGradGradGradGradGradGradGradGradGradGradGradGrad
 Berny optimization.
 Initialization pass.
                           ----------------------------
                           !    Initial Parameters    !
                           ! (Angstroms and Degrees)  !
 --------------------------                            --------------------------
 ! Name  Definition              Value          Derivative Info.                !
 --------------------------------------------------------------------------------
 ! R1    R(1,2)                  0.9928         estimate D2E/DX2                !
 ! R2    R(1,3)                  0.9946         estimate D2E/DX2                !
 ! A1    A(2,1,3)              105.3777         estimate D2E/DX2                !
 --------------------------------------------------------------------------------
 Trust Radius=3.00D-01 FncErr=1.00D-07 GrdErr=1.00D-06 EigMax=2.50D+02 EigMin=1.00D-04
 Number of steps in this run=     20 maximum allowed number of steps=    100.
 GradGradGradGradGradGradGradGradGradGradGradGradGradGradGradGradGradGrad

 Leave Link  103 at Wed Aug 10 17:03:27 2022, MaxMem=  6442450944 cpu:               0.1 elap:               0.0
 (Enter /mnt/gpfs3_amd/share/apps/amd/gaussian/g16-A.03/g16/l202.exe)
                          Input orientation:                          
 ---------------------------------------------------------------------
 Center     Atomic      Atomic             Coordinates (Angstroms)
 Number     Number       Type             X           Y           Z
 ---------------------------------------------------------------------
      1          8           0       -0.000945    0.401540    0.000000
      2          1           0       -0.789854   -0.201188    0.000000
      3          1           0        0.790799   -0.200351    0.000000
 ---------------------------------------------------------------------
                    Distance matrix (angstroms):
                    1          2          3
     1  O    0.000000
     2  H    0.992803   0.000000
     3  H    0.994551   1.580653   0.000000
 Stoichiometry    H2O(1+,2)
 Framework group  CS[SG(H2O)]
 Deg. of freedom     3
 Full point group                 CS      NOp   2
 Largest Abelian subgroup         CS      NOp   2
 Largest concise Abelian subgroup C1      NOp   1
                         Standard orientation:                         
 ---------------------------------------------------------------------
 Center     Atomic      Atomic             Coordinates (Angstroms)
 Number     Number       Type             X           Y           Z
 ---------------------------------------------------------------------
      1          8           0        0.000000    0.120462    0.000000
      2          1           0        0.790325   -0.480407    0.000000
      3          1           0       -0.790325   -0.483290   -0.000000
 ---------------------------------------------------------------------
 Rotational constants (GHZ):         778.2311609         401.4091903         264.8172724
 Leave Link  202 at Wed Aug 10 17:03:27 2022, MaxMem=  6442450944 cpu:               0.1 elap:               0.0
 (Enter /mnt/gpfs3_amd/share/apps/amd/gaussian/g16-A.03/g16/l301.exe)
 Standard basis: def2SVP (5D, 7F)
 Ernie: Thresh=  0.10000D-02 Tol=  0.10000D-05 Strict=F.
 There are    19 symmetry adapted cartesian basis functions of A'  symmetry.
 There are     6 symmetry adapted cartesian basis functions of A"  symmetry.
 There are    18 symmetry adapted basis functions of A'  symmetry.
 There are     6 symmetry adapted basis functions of A"  symmetry.
    24 basis functions,    39 primitive gaussians,    25 cartesian basis functions
     5 alpha electrons        4 beta electrons
       nuclear repulsion energy         8.8555016470 Hartrees.
 IExCor=33909 DFT=T Ex+Corr=LC-wHPBE ExCW=0 ScaHFX=  1.000000
 ScaDFX=  1.000000  1.000000  1.000000  1.000000 ScalE2=  1.000000  1.000000
 IRadAn=      5 IRanWt=     -1 IRanGd=            0 ICorTp=0 IEmpDi=  4
 HFx  wShort=  0.000000 wLong=  0.499400 cFull=  0.000000 cShort=  0.000000 cLong=  1.000000
 DFx  wShort=  0.000000 wLong=  0.499400 cFull=  0.000000 cShort=  1.000000 cLong=  0.000000
 NAtoms=    3 NActive=    3 NUniq=    3 SFac= 1.00D+00 NAtFMM=   60 NAOKFM=F Big=F
 Integral buffers will be    131072 words long.
 Raffenetti 2 integral format.
 Two-electron integral symmetry is turned on.
 Leave Link  301 at Wed Aug 10 17:03:27 2022, MaxMem=  6442450944 cpu:               0.4 elap:               0.0
 (Enter /mnt/gpfs3_amd/share/apps/amd/gaussian/g16-A.03/g16/l302.exe)
 NPDir=0 NMtPBC=     1 NCelOv=     1 NCel=       1 NClECP=     1 NCelD=      1
         NCelK=      1 NCelE2=     1 NClLst=     1 CellRange=     0.0.
 One-electron integrals computed using PRISM.
 One-electron integral symmetry used in STVInt
   2 Symmetry operations used in ECPInt.
 ECPInt:  NShTT=      78 NPrTT=     272 LenC2=      79 LenP2D=     271.
 LDataN:  DoStor=T MaxTD1= 4 Len=   56
 NBasis=    24 RedAO= T EigKep=  4.06D-02  NBF=    18     6
 NBsUse=    24 1.00D-06 EigRej= -1.00D+00 NBFU=    18     6
 Precomputing XC quadrature grid using
 IXCGrd= 4 IRadAn=           5 IRanWt=          -1 IRanGd=           0 AccXCQ= 0.00D+00.
 Generated NRdTot=       0 NPtTot=           0 NUsed=           0 NTot=          32
 NSgBfM=    25    25    25    25    25 MxSgAt=     3 MxSgA2=     3.
 Leave Link  302 at Wed Aug 10 17:03:27 2022, MaxMem=  6442450944 cpu:               5.5 elap:               0.4
 (Enter /mnt/gpfs3_amd/share/apps/amd/gaussian/g16-A.03/g16/l303.exe)
 DipDrv:  MaxL=1.
 Leave Link  303 at Wed Aug 10 17:03:27 2022, MaxMem=  6442450944 cpu:               0.2 elap:               0.0
 (Enter /mnt/gpfs3_amd/share/apps/amd/gaussian/g16-A.03/g16/l401.exe)
 ExpMin= 1.22D-01 ExpMax= 2.27D+03 ExpMxC= 3.41D+02 IAcc=3 IRadAn=         5 AccDes= 0.00D+00
 Harris functional with IExCor=33909 and IRadAn=       5 diagonalized for initial guess.
 HarFok:  IExCor=33909 AccDes= 0.00D+00 IRadAn=         5 IDoV= 1 UseB2=F ITyADJ=14
 ICtDFT=  3500011 ScaDFX=  1.000000  1.000000  1.000000  1.000000
 FoFCou: FMM=F IPFlag=           0 FMFlag=      100000 FMFlg1=           0
         NFxFlg=           0 DoJE=T BraDBF=F KetDBF=T FulRan=T
         wScrn=  0.000000 ICntrl=       500 IOpCl=  0 I1Cent=   200000004 NGrid=           0
         NMat0=    1 NMatS0=      1 NMatT0=    0 NMatD0=    1 NMtDS0=    0 NMtDT0=    0
 Petite list used in FoFCou.
 Harris En= -73.7743518948252    
 JPrj=0 DoOrth=F DoCkMO=F.
 Initial guess orbital symmetries:
 Alpha Orbitals:
       Occupied  (A') (A') (A') (A') (A")
       Virtual   (A') (A') (A') (A') (A') (A") (A') (A') (A") (A')
                 (A") (A') (A') (A') (A") (A") (A') (A') (A')
 Beta  Orbitals:
       Occupied  (A') (A') (A') (A')
       Virtual   (A") (A') (A') (A') (A') (A') (A") (A') (A') (A")
                 (A') (A") (A') (A') (A') (A") (A") (A') (A') (A')
 The electronic state of the initial guess is 2-A".
 Initial guess <Sx>= 0.0000 <Sy>= 0.0000 <Sz>= 0.5000 <S**2>= 0.7500 S= 0.5000
 Leave Link  401 at Wed Aug 10 17:03:28 2022, MaxMem=  6442450944 cpu:               7.9 elap:               0.6
 (Enter /mnt/gpfs3_amd/share/apps/amd/gaussian/g16-A.03/g16/l502.exe)
 Keep R1 and R2 ints in memory in symmetry-blocked form, NReq=13884302.
 FoFCou: FMM=F IPFlag=           0 FMFlag=           0 FMFlg1=           0
         NFxFlg=           0 DoJE=F BraDBF=F KetDBF=F FulRan=T
         wScrn=  0.000000 ICntrl=       600 IOpCl=  0 I1Cent=           0 NGrid=           0
         NMat0=    1 NMatS0=    300 NMatT0=    0 NMatD0=    1 NMtDS0=    0 NMtDT0=    0
 Petite list used in FoFCou.
 UHF open shell SCF:
 Using DIIS extrapolation, IDIIS=  1040.
 NGot=  6442450944 LenX=  6442399050 LenY=  6442397984
 Requested convergence on RMS density matrix=1.00D-08 within 512 cycles.
 Requested convergence on MAX density matrix=1.00D-06.
 Requested convergence on             energy=1.00D-06.
 No special actions if energy rises.
 Integral accuracy reduced to 1.0D-05 until final iterations.

 Cycle   1  Pass 0  IDiag  1:
 E= -75.8274071216652    
 DIIS: error= 5.33D-02 at cycle   1 NSaved=   1.
 NSaved= 1 IEnMin= 1 EnMin= -75.8274071216652     IErMin= 1 ErrMin= 5.33D-02
 ErrMax= 5.33D-02  0.00D+00 EMaxC= 1.00D-01 BMatC= 2.04D-01 BMatP= 2.04D-01
 IDIUse=3 WtCom= 4.67D-01 WtEn= 5.33D-01
 Coeff-Com:  0.100D+01
 Coeff-En:   0.100D+01
 Coeff:      0.100D+01
 Gap=     0.908 Goal=   None    Shift=    0.000
 Gap=     0.504 Goal=   None    Shift=    0.000
 GapD=    0.504 DampG=2.000 DampE=0.500 DampFc=1.0000 IDamp=-1.
 RMSDP=1.02D-02 MaxDP=1.16D-01              OVMax= 9.44D-02

 Cycle   2  Pass 0  IDiag  1:
 E= -75.8607727457822     Delta-E=       -0.033365624117 Rises=F Damp=F
 DIIS: error= 2.70D-02 at cycle   2 NSaved=   2.
 NSaved= 2 IEnMin= 2 EnMin= -75.8607727457822     IErMin= 2 ErrMin= 2.70D-02
 ErrMax= 2.70D-02  0.00D+00 EMaxC= 1.00D-01 BMatC= 7.29D-02 BMatP= 2.04D-01
 IDIUse=3 WtCom= 7.30D-01 WtEn= 2.70D-01
 Coeff-Com:  0.358D+00 0.642D+00
 Coeff-En:   0.000D+00 0.100D+01
 Coeff:      0.261D+00 0.739D+00
 Gap=     0.819 Goal=   None    Shift=    0.000
 Gap=     0.526 Goal=   None    Shift=    0.000
 RMSDP=4.18D-03 MaxDP=5.04D-02 DE=-3.34D-02 OVMax= 4.11D-02

 Cycle   3  Pass 0  IDiag  1:
 E= -75.8729352112473     Delta-E=       -0.012162465465 Rises=F Damp=F
 DIIS: error= 6.58D-03 at cycle   3 NSaved=   3.
 NSaved= 3 IEnMin= 3 EnMin= -75.8729352112473     IErMin= 3 ErrMin= 6.58D-03
 ErrMax= 6.58D-03  0.00D+00 EMaxC= 1.00D-01 BMatC= 3.43D-03 BMatP= 7.29D-02
 IDIUse=3 WtCom= 9.34D-01 WtEn= 6.58D-02
 Coeff-Com: -0.431D-01 0.126D+00 0.917D+00
 Coeff-En:   0.000D+00 0.000D+00 0.100D+01
 Coeff:     -0.403D-01 0.118D+00 0.922D+00
 Gap=     0.839 Goal=   None    Shift=    0.000
 Gap=     0.527 Goal=   None    Shift=    0.000
 RMSDP=9.41D-04 MaxDP=1.20D-02 DE=-1.22D-02 OVMax= 1.01D-02

 Cycle   4  Pass 0  IDiag  1:
 E= -75.8736540185790     Delta-E=       -0.000718807332 Rises=F Damp=F
 DIIS: error= 9.66D-04 at cycle   4 NSaved=   4.
 NSaved= 4 IEnMin= 4 EnMin= -75.8736540185790     IErMin= 4 ErrMin= 9.66D-04
 ErrMax= 9.66D-04  0.00D+00 EMaxC= 1.00D-01 BMatC= 5.21D-05 BMatP= 3.43D-03
 IDIUse=3 WtCom= 9.90D-01 WtEn= 9.66D-03
 Coeff-Com: -0.851D-02-0.289D-01-0.564D-02 0.104D+01
 Coeff-En:   0.000D+00 0.000D+00 0.000D+00 0.100D+01
 Coeff:     -0.843D-02-0.286D-01-0.558D-02 0.104D+01
 Gap=     0.837 Goal=   None    Shift=    0.000
 Gap=     0.527 Goal=   None    Shift=    0.000
 RMSDP=1.52D-04 MaxDP=2.08D-03 DE=-7.19D-04 OVMax= 2.14D-03

 Cycle   5  Pass 0  IDiag  1:
 E= -75.8736734939175     Delta-E=       -0.000019475338 Rises=F Damp=F
 DIIS: error= 2.64D-04 at cycle   5 NSaved=   5.
 NSaved= 5 IEnMin= 5 EnMin= -75.8736734939175     IErMin= 5 ErrMin= 2.64D-04
 ErrMax= 2.64D-04  0.00D+00 EMaxC= 1.00D-01 BMatC= 5.18D-06 BMatP= 5.21D-05
 IDIUse=3 WtCom= 9.97D-01 WtEn= 2.64D-03
 Coeff-Com:  0.603D-02 0.567D-02-0.543D-01-0.474D+00 0.152D+01
 Coeff-En:   0.000D+00 0.000D+00 0.000D+00 0.000D+00 0.100D+01
 Coeff:      0.601D-02 0.565D-02-0.541D-01-0.472D+00 0.151D+01
 Gap=     0.837 Goal=   None    Shift=    0.000
 Gap=     0.527 Goal=   None    Shift=    0.000
 RMSDP=8.18D-05 MaxDP=8.82D-04 DE=-1.95D-05 OVMax= 1.11D-03

 Cycle   6  Pass 0  IDiag  1:
 E= -75.8736772142117     Delta-E=       -0.000003720294 Rises=F Damp=F
 DIIS: error= 6.60D-05 at cycle   6 NSaved=   6.
 NSaved= 6 IEnMin= 6 EnMin= -75.8736772142117     IErMin= 6 ErrMin= 6.60D-05
 ErrMax= 6.60D-05  0.00D+00 EMaxC= 1.00D-01 BMatC= 2.70D-07 BMatP= 5.18D-06
 IDIUse=1 WtCom= 1.00D+00 WtEn= 0.00D+00
 Coeff-Com: -0.155D-02-0.583D-03 0.194D-01 0.120D+00-0.602D+00 0.146D+01
 Coeff:     -0.155D-02-0.583D-03 0.194D-01 0.120D+00-0.602D+00 0.146D+01
 Gap=     0.837 Goal=   None    Shift=    0.000
 Gap=     0.527 Goal=   None    Shift=    0.000
 RMSDP=2.37D-05 MaxDP=2.29D-04 DE=-3.72D-06 OVMax= 3.23D-04

 Cycle   7  Pass 0  IDiag  1:
 E= -75.8736774434488     Delta-E=       -0.000000229237 Rises=F Damp=F
 DIIS: error= 1.11D-05 at cycle   7 NSaved=   7.
 NSaved= 7 IEnMin= 7 EnMin= -75.8736774434488     IErMin= 7 ErrMin= 1.11D-05
 ErrMax= 1.11D-05  0.00D+00 EMaxC= 1.00D-01 BMatC= 6.11D-09 BMatP= 2.70D-07
 IDIUse=1 WtCom= 1.00D+00 WtEn= 0.00D+00
 Coeff-Com:  0.245D-03 0.169D-03-0.354D-02-0.241D-01 0.131D+00-0.436D+00
 Coeff-Com:  0.133D+01
 Coeff:      0.245D-03 0.169D-03-0.354D-02-0.241D-01 0.131D+00-0.436D+00
 Coeff:      0.133D+01
 Gap=     0.837 Goal=   None    Shift=    0.000
 Gap=     0.527 Goal=   None    Shift=    0.000
 RMSDP=3.81D-06 MaxDP=2.85D-05 DE=-2.29D-07 OVMax= 6.33D-05

 Initial convergence to 1.0D-05 achieved.  Increase integral accuracy.
 Cycle   8  Pass 1  IDiag  1:
 E= -75.8736760257598     Delta-E=        0.000001417689 Rises=F Damp=F
 DIIS: error= 1.79D-06 at cycle   1 NSaved=   1.
 NSaved= 1 IEnMin= 1 EnMin= -75.8736760257598     IErMin= 1 ErrMin= 1.79D-06
 ErrMax= 1.79D-06  0.00D+00 EMaxC= 1.00D-01 BMatC= 1.51D-10 BMatP= 1.51D-10
 IDIUse=1 WtCom= 1.00D+00 WtEn= 0.00D+00
 Coeff-Com:  0.100D+01
 Coeff:      0.100D+01
 Gap=     0.837 Goal=   None    Shift=    0.000
 Gap=     0.527 Goal=   None    Shift=    0.000
 RMSDP=3.81D-06 MaxDP=2.85D-05 DE= 1.42D-06 OVMax= 6.62D-06

 Cycle   9  Pass 1  IDiag  1:
 E= -75.8736760258453     Delta-E=       -0.000000000086 Rises=F Damp=F
 DIIS: error= 7.29D-07 at cycle   2 NSaved=   2.
 NSaved= 2 IEnMin= 2 EnMin= -75.8736760258453     IErMin= 2 ErrMin= 7.29D-07
 ErrMax= 7.29D-07  0.00D+00 EMaxC= 1.00D-01 BMatC= 2.62D-11 BMatP= 1.51D-10
 IDIUse=1 WtCom= 1.00D+00 WtEn= 0.00D+00
 Coeff-Com: -0.366D+00 0.137D+01
 Coeff:     -0.366D+00 0.137D+01
 Gap=     0.837 Goal=   None    Shift=    0.000
 Gap=     0.527 Goal=   None    Shift=    0.000
 RMSDP=1.94D-07 MaxDP=1.71D-06 DE=-8.55D-11 OVMax= 3.62D-06

 Cycle  10  Pass 1  IDiag  1:
 E= -75.8736760258629     Delta-E=       -0.000000000018 Rises=F Damp=F
 DIIS: error= 2.46D-07 at cycle   3 NSaved=   3.
 NSaved= 3 IEnMin= 3 EnMin= -75.8736760258629     IErMin= 3 ErrMin= 2.46D-07
 ErrMax= 2.46D-07  0.00D+00 EMaxC= 1.00D-01 BMatC= 5.22D-12 BMatP= 2.62D-11
 IDIUse=1 WtCom= 1.00D+00 WtEn= 0.00D+00
 Coeff-Com: -0.229D+00 0.448D+00 0.781D+00
 Coeff:     -0.229D+00 0.448D+00 0.781D+00
 Gap=     0.837 Goal=   None    Shift=    0.000
 Gap=     0.527 Goal=   None    Shift=    0.000
 RMSDP=5.45D-08 MaxDP=7.27D-07 DE=-1.76D-11 OVMax= 1.07D-06

 Cycle  11  Pass 1  IDiag  1:
 E= -75.8736760258647     Delta-E=       -0.000000000002 Rises=F Damp=F
 DIIS: error= 5.82D-08 at cycle   4 NSaved=   4.
 NSaved= 4 IEnMin= 4 EnMin= -75.8736760258647     IErMin= 4 ErrMin= 5.82D-08
 ErrMax= 5.82D-08  0.00D+00 EMaxC= 1.00D-01 BMatC= 2.61D-13 BMatP= 5.22D-12
 IDIUse=1 WtCom= 1.00D+00 WtEn= 0.00D+00
 Coeff-Com:  0.919D-01-0.239D+00-0.187D+00 0.133D+01
 Coeff:      0.919D-01-0.239D+00-0.187D+00 0.133D+01
 Gap=     0.837 Goal=   None    Shift=    0.000
 Gap=     0.527 Goal=   None    Shift=    0.000
 RMSDP=1.88D-08 MaxDP=2.38D-07 DE=-1.75D-12 OVMax= 3.10D-07

 Cycle  12  Pass 1  IDiag  1:
 E= -75.8736760258649     Delta-E=       -0.000000000000 Rises=F Damp=F
 DIIS: error= 2.03D-08 at cycle   5 NSaved=   5.
 NSaved= 5 IEnMin= 5 EnMin= -75.8736760258649     IErMin= 5 ErrMin= 2.03D-08
 ErrMax= 2.03D-08  0.00D+00 EMaxC= 1.00D-01 BMatC= 2.03D-14 BMatP= 2.61D-13
 IDIUse=1 WtCom= 1.00D+00 WtEn= 0.00D+00
 Coeff-Com: -0.240D-01 0.735D-01 0.232D-01-0.574D+00 0.150D+01
 Coeff:     -0.240D-01 0.735D-01 0.232D-01-0.574D+00 0.150D+01
 Gap=     0.837 Goal=   None    Shift=    0.000
 Gap=     0.527 Goal=   None    Shift=    0.000
 RMSDP=5.71D-09 MaxDP=6.56D-08 DE=-2.42D-13 OVMax= 8.37D-08

 SCF Done:  E(ULC-wHPBE) =  -75.8736760259     A.U. after   12 cycles
            NFock= 12  Conv=0.57D-08     -V/T= 2.0061
 <Sx>= 0.0000 <Sy>= 0.0000 <Sz>= 0.5000 <S**2>= 0.7524 S= 0.5012
 <L.S>= 0.000000000000E+00
 KE= 7.541177539711D+01 PE=-1.929139874154D+02 EE= 3.277303434543D+01
 Annihilation of the first spin contaminant:
 S**2 before annihilation     0.7524,   after     0.7500
 Leave Link  502 at Wed Aug 10 17:03:29 2022, MaxMem=  6442450944 cpu:              19.4 elap:               1.4
 (Enter /mnt/gpfs3_amd/share/apps/amd/gaussian/g16-A.03/g16/l601.exe)
 Copying SCF densities to generalized density rwf, IOpCl= 1 IROHF=0.

 **********************************************************************

            Population analysis using the SCF density.

 **********************************************************************

 Orbital symmetries:
 Alpha Orbitals:
       Occupied  (A') (A') (A') (A") (A')
       Virtual   (A') (A') (A') (A') (A") (A') (A') (A') (A") (A')
                 (A") (A') (A') (A') (A") (A") (A') (A') (A')
 Beta  Orbitals:
       Occupied  (A') (A') (A') (A')
       Virtual   (A") (A') (A') (A') (A') (A') (A") (A') (A') (A")
                 (A') (A") (A') (A') (A') (A") (A") (A') (A') (A')
 The electronic state is 2-A".
 Alpha  occ. eigenvalues --  -19.58527  -1.67531  -1.14455  -1.03332  -1.01257
 Alpha virt. eigenvalues --   -0.17528  -0.09933   0.30204   0.33747   0.58393
 Alpha virt. eigenvalues --    0.63858   0.74275   0.80266   1.04910   1.15255
 Alpha virt. eigenvalues --    1.26808   1.50253   1.86533   1.88040   2.53039
 Alpha virt. eigenvalues --    2.58231   2.79550   3.10492   3.45359
  Beta  occ. eigenvalues --  -19.55953  -1.60083  -1.12286  -0.98238
  Beta virt. eigenvalues --   -0.45534  -0.16556  -0.09312   0.30189   0.34802
  Beta virt. eigenvalues --    0.65536   0.67842   0.75629   0.83389   1.07058
  Beta virt. eigenvalues --    1.16911   1.29084   1.50000   1.87245   1.92864
  Beta virt. eigenvalues --    2.60962   2.66232   2.82187   3.17136   3.46793
          Condensed to atoms (all electrons):
               1          2          3
     1  O    7.001565   0.323534   0.323026
     2  H    0.323534   0.359122  -0.006052
     3  H    0.323026  -0.006052   0.358298
          Atomic-Atomic Spin Densities.
               1          2          3
     1  O    1.057090  -0.001585  -0.001651
     2  H   -0.001585  -0.026113   0.000822
     3  H   -0.001651   0.000822  -0.026150
 Mulliken charges and spin densities:
               1          2
     1  O    0.351876   1.053854
     2  H    0.323396  -0.026876
     3  H    0.324728  -0.026979
 Sum of Mulliken charges =   1.00000   1.00000
 Mulliken charges and spin densities with hydrogens summed into heavy atoms:
               1          2
     1  O    1.000000   1.000000
 Electronic spatial extent (au):  <R**2>=             14.6161
 Charge=              1.0000 electrons
 Dipole moment (field-independent basis, Debye):
    X=             -0.0010    Y=             -2.3332    Z=             -0.0000  Tot=              2.3332
 Quadrupole moment (field-independent basis, Debye-Ang):
   XX=             -1.9086   YY=             -4.2585   ZZ=             -4.7036
   XY=              0.0072   XZ=              0.0000   YZ=              0.0000
 Traceless Quadrupole moment (field-independent basis, Debye-Ang):
   XX=              1.7150   YY=             -0.6349   ZZ=             -1.0800
   XY=              0.0072   XZ=              0.0000   YZ=              0.0000
 Octapole moment (field-independent basis, Debye-Ang**2):
  XXX=             -0.0005  YYY=             -1.5546  ZZZ=             -0.0000  XYY=             -0.0063
  XXY=             -1.9562  XXZ=             -0.0000  XZZ=              0.0005  YZZ=             -0.2440
  YYZ=             -0.0000  XYZ=             -0.0000
 Hexadecapole moment (field-independent basis, Debye-Ang**3):
 XXXX=             -2.6362 YYYY=             -4.2299 ZZZZ=             -2.5632 XXXY=              0.0032
 XXXZ=              0.0000 YYYX=              0.0035 YYYZ=              0.0000 ZZZX=             -0.0000
 ZZZY=             -0.0000 XXYY=             -0.6506 XXZZ=             -1.2866 YYZZ=             -1.1860
 XXYZ=              0.0000 YYXZ=              0.0000 ZZXY=             -0.0007
 N-N= 8.855501647048D+00 E-N=-1.929139873789D+02  KE= 7.541177539711D+01
 Symmetry A'   KE= 7.268427108747D+01
 Symmetry A"   KE= 2.727504309641D+00
 Symmetry A'   SP= 1.494358564842D-14
 Symmetry A"   SP= 1.000000000000D+00
                          Isotropic Fermi Contact Couplings
        Atom                 a.u.       MegaHertz       Gauss      10(-4) cm-1
     1  O(17)              0.29223    -177.14888     -63.21112     -59.09050
     2  H(1)              -0.01399     -62.53257     -22.31317     -20.85862
     3  H(1)              -0.01400     -62.58599     -22.33224     -20.87644
 --------------------------------------------------------
       Center         ----  Spin Dipole Couplings  ----
                      3XX-RR        3YY-RR        3ZZ-RR
 --------------------------------------------------------
     1   Atom       -1.981234     -2.042250      4.023485
     2   Atom        0.067734     -0.021338     -0.046397
     3   Atom        0.066927     -0.020518     -0.046408
 --------------------------------------------------------
                        XY            XZ            YZ
 --------------------------------------------------------
     1   Atom        0.000374     -0.000000     -0.000000
     2   Atom       -0.141995      0.000000     -0.000000
     3   Atom        0.141671      0.000000      0.000000
 --------------------------------------------------------


 ---------------------------------------------------------------------------------
              Anisotropic Spin Dipole Couplings in Principal Axis System
 ---------------------------------------------------------------------------------

       Atom             a.u.   MegaHertz   Gauss  10(-4) cm-1        Axes

              Baa    -2.0423   147.776    52.730    49.293 -0.0061  1.0000 -0.0000
     1 O(17)  Bbb    -1.9812   143.361    51.155    47.820  1.0000  0.0061  0.0000
              Bcc     4.0235  -291.137  -103.885   -97.113  0.0000  0.0000  1.0000
 
              Baa    -0.1256   -67.023   -23.916   -22.357  0.5919  0.8060 -0.0000
     2 H(1)   Bbb    -0.0464   -24.755    -8.833    -8.257  0.0000  0.0000  1.0000
              Bcc     0.1720    91.778    32.749    30.614  0.8060 -0.5919  0.0000
 
              Baa    -0.1251   -66.726   -23.810   -22.257 -0.5938  0.8046 -0.0000
     3 H(1)   Bbb    -0.0464   -24.761    -8.835    -8.259  0.0000  0.0000  1.0000
              Bcc     0.1715    91.487    32.645    30.517  0.8046  0.5938 -0.0000
 

 ---------------------------------------------------------------------------------

 No NMR shielding tensors so no spin-rotation constants.
 Leave Link  601 at Wed Aug 10 17:03:29 2022, MaxMem=  6442450944 cpu:               3.7 elap:               0.3
 (Enter /mnt/gpfs3_amd/share/apps/amd/gaussian/g16-A.03/g16/l701.exe)
 ... and contract with generalized density number  0.
 Compute integral first derivatives.
   2 Symmetry operations used in ECPInt.
 ECPInt:  NShTT=      78 NPrTT=     272 LenC2=      79 LenP2D=     271.
 LDataN:  DoStor=T MaxTD1= 5 Len=  102
 Leave Link  701 at Wed Aug 10 17:03:30 2022, MaxMem=  6442450944 cpu:               2.3 elap:               0.2
 (Enter /mnt/gpfs3_amd/share/apps/amd/gaussian/g16-A.03/g16/l702.exe)
 L702 exits ... SP integral derivatives will be done elsewhere.
 Leave Link  702 at Wed Aug 10 17:03:30 2022, MaxMem=  6442450944 cpu:               0.2 elap:               0.0
 (Enter /mnt/gpfs3_amd/share/apps/amd/gaussian/g16-A.03/g16/l703.exe)
 Integral derivatives from FoFJK, PRISM(SPDF).
 Compute integral first derivatives, UseDBF=F ICtDFT=           0.
 Calling FoFJK, ICntrl=      2127 FMM=F ISym2X=1 I1Cent= 0 IOpClX= 1 NMat=1 NMatS=1 NMatT=0.
 FoFJK:  IHMeth= 1 ICntrl=    2127 DoSepK=T KAlg= 0 I1Cent=           0 FoldK=F
 IRaf=         1 NMat=       1 IRICut=       1 DoRegI=T DoRafI=F ISym2E= 1 IDoP0=0 IntGTp=1.
 FoFCou: FMM=F IPFlag=           0 FMFlag=      100000 FMFlg1=         800
         NFxFlg=           0 DoJE=F BraDBF=F KetDBF=F FulRan=T
         wScrn=  0.000000 ICntrl=      2527 IOpCl=  0 I1Cent=           0 NGrid=           0
         NMat0=    1 NMatS0=      1 NMatT0=    0 NMatD0=    1 NMtDS0=    0 NMtDT0=    0
 Petite list used in FoFCou.
 Leave Link  703 at Wed Aug 10 17:03:30 2022, MaxMem=  6442450944 cpu:               6.8 elap:               0.5
 (Enter /mnt/gpfs3_amd/share/apps/amd/gaussian/g16-A.03/g16/l716.exe)
 Dipole        =-3.84021970D-04-9.17935183D-01-2.83715926D-35
 ***** Axes restored to original set *****
 -------------------------------------------------------------------
 Center     Atomic                   Forces (Hartrees/Bohr)
 Number     Number              X              Y              Z
 -------------------------------------------------------------------
      1        8           0.001216288    0.002231005   -0.000000000
      2        1          -0.012185909   -0.001587074    0.000000000
      3        1           0.010969621   -0.000643931   -0.000000000
 -------------------------------------------------------------------
 Cartesian Forces:  Max     0.012185909 RMS     0.005559967
 Leave Link  716 at Wed Aug 10 17:03:30 2022, MaxMem=  6442450944 cpu:               0.3 elap:               0.0
 (Enter /mnt/gpfs3_amd/share/apps/amd/gaussian/g16-A.03/g16/l103.exe)

 GradGradGradGradGradGradGradGradGradGradGradGradGradGradGradGradGradGrad
 Berny optimization.
 FormGI is forming the generalized inverse of G from B-inverse, IUseBI=4.
 Internal  Forces:  Max     0.011513552 RMS     0.010474319
 Search for a local minimum.
 Step number   1 out of a maximum of   20
 All quantities printed in internal units (Hartrees-Bohrs-Radians)
 RMS Force = .10474D-01 SwitMx=.10000D-02 MixMth= 1
 Mixed Optimization -- RFO/linear search
 Second derivative matrix not updated -- first step.
 The second derivative matrix:
                          R1        R2        A1
           R1           0.48976
           R2           0.00000   0.48659
           A1           0.00000   0.00000   0.16000
 ITU=  0
     Eigenvalues ---    0.16000   0.48659   0.48976
 RFO step:  Lambda=-1.22368637D-03 EMin= 1.60000000D-01
 Linear search not attempted -- first point.
 Iteration  1 RMS(Cart)=  0.05019140 RMS(Int)=  0.00106910
 Iteration  2 RMS(Cart)=  0.00075039 RMS(Int)=  0.00000031
 Iteration  3 RMS(Cart)=  0.00000035 RMS(Int)=  0.00000000
 ITry= 1 IFail=0 DXMaxC= 5.67D-02 DCOld= 1.00D+10 DXMaxT= 3.00D-01 DXLimC= 3.00D+00 Rises=F
 ClnCor:  largest displacement from symmetrization is 8.67D-16 for atom     2.
 Variable       Old X    -DE/DX   Delta X   Delta X   Delta X     New X
                                 (Linear)    (Quad)   (Total)
    R1        1.87613   0.01065   0.00000   0.02168   0.02168   1.89781
    R2        1.87943   0.00912   0.00000   0.01870   0.01870   1.89813
    A1        1.83919   0.01151   0.00000   0.07141   0.07141   1.91060
         Item               Value     Threshold  Converged?
 Maximum Force            0.011514     0.000450     NO 
 RMS     Force            0.010474     0.000300     NO 
 Maximum Displacement     0.056710     0.001800     NO 
 RMS     Displacement     0.050030     0.001200     NO 
 Predicted change in Energy=-6.154651D-04
 Lowest energy point so far.  Saving SCF results.
 GradGradGradGradGradGradGradGradGradGradGradGradGradGradGradGradGradGrad

 Leave Link  103 at Wed Aug 10 17:03:30 2022, MaxMem=  6442450944 cpu:               0.1 elap:               0.0
 (Enter /mnt/gpfs3_amd/share/apps/amd/gaussian/g16-A.03/g16/l202.exe)
                          Input orientation:                          
 ---------------------------------------------------------------------
 Center     Atomic      Atomic             Coordinates (Angstroms)
 Number     Number       Type             X           Y           Z
 ---------------------------------------------------------------------
      1          8           0       -0.000371    0.386588   -0.000000
      2          1           0       -0.819864   -0.193934    0.000000
      3          1           0        0.820234   -0.192653   -0.000000
 ---------------------------------------------------------------------
                    Distance matrix (angstroms):
                    1          2          3
     1  O    0.000000
     2  H    1.004278   0.000000
     3  H    1.004447   1.640098   0.000000
 Stoichiometry    H2O(1+,2)
 Framework group  CS[SG(H2O)]
 Deg. of freedom     3
 Full point group                 CS      NOp   2
 RotChk:  IX=0 Diff= 1.97D-03
 Largest Abelian subgroup         CS      NOp   2
 Largest concise Abelian subgroup C1      NOp   1
                         Standard orientation:                         
 ---------------------------------------------------------------------
 Center     Atomic      Atomic             Coordinates (Angstroms)
 Number     Number       Type             X           Y           Z
 ---------------------------------------------------------------------
      1          8           0        0.000000    0.115976    0.000000
      2          1           0        0.820049   -0.463760    0.000000
      3          1           0       -0.820049   -0.464052    0.000000
 ---------------------------------------------------------------------
 Rotational constants (GHZ):         839.5913189         372.8398184         258.1862716
 Leave Link  202 at Wed Aug 10 17:03:30 2022, MaxMem=  6442450944 cpu:               0.1 elap:               0.0
 (Enter /mnt/gpfs3_amd/share/apps/amd/gaussian/g16-A.03/g16/l301.exe)
 Standard basis: def2SVP (5D, 7F)
 Ernie: Thresh=  0.10000D-02 Tol=  0.10000D-05 Strict=F.
 There are    19 symmetry adapted cartesian basis functions of A'  symmetry.
 There are     6 symmetry adapted cartesian basis functions of A"  symmetry.
 There are    18 symmetry adapted basis functions of A'  symmetry.
 There are     6 symmetry adapted basis functions of A"  symmetry.
    24 basis functions,    39 primitive gaussians,    25 cartesian basis functions
     5 alpha electrons        4 beta electrons
       nuclear repulsion energy         8.7527093047 Hartrees.
 IExCor=33909 DFT=T Ex+Corr=LC-wHPBE ExCW=0 ScaHFX=  1.000000
 ScaDFX=  1.000000  1.000000  1.000000  1.000000 ScalE2=  1.000000  1.000000
 IRadAn=      5 IRanWt=     -1 IRanGd=            0 ICorTp=0 IEmpDi=  4
 HFx  wShort=  0.000000 wLong=  0.499400 cFull=  0.000000 cShort=  0.000000 cLong=  1.000000
 DFx  wShort=  0.000000 wLong=  0.499400 cFull=  0.000000 cShort=  1.000000 cLong=  0.000000
 NAtoms=    3 NActive=    3 NUniq=    3 SFac= 1.00D+00 NAtFMM=   60 NAOKFM=F Big=F
 Integral buffers will be    131072 words long.
 Raffenetti 2 integral format.
 Two-electron integral symmetry is turned on.
 Leave Link  301 at Wed Aug 10 17:03:30 2022, MaxMem=  6442450944 cpu:               0.4 elap:               0.0
 (Enter /mnt/gpfs3_amd/share/apps/amd/gaussian/g16-A.03/g16/l302.exe)
 NPDir=0 NMtPBC=     1 NCelOv=     1 NCel=       1 NClECP=     1 NCelD=      1
         NCelK=      1 NCelE2=     1 NClLst=     1 CellRange=     0.0.
 One-electron integrals computed using PRISM.
 One-electron integral symmetry used in STVInt
   2 Symmetry operations used in ECPInt.
 ECPInt:  NShTT=      78 NPrTT=     272 LenC2=      79 LenP2D=     271.
 LDataN:  DoStor=T MaxTD1= 4 Len=   56
 NBasis=    24 RedAO= T EigKep=  4.26D-02  NBF=    18     6
 NBsUse=    24 1.00D-06 EigRej= -1.00D+00 NBFU=    18     6
 Precomputing XC quadrature grid using
 IXCGrd= 4 IRadAn=           5 IRanWt=          -1 IRanGd=           0 AccXCQ= 0.00D+00.
 Generated NRdTot=       0 NPtTot=           0 NUsed=           0 NTot=          32
 NSgBfM=    25    25    25    25    25 MxSgAt=     3 MxSgA2=     3.
 Leave Link  302 at Wed Aug 10 17:03:30 2022, MaxMem=  6442450944 cpu:               4.0 elap:               0.3
 (Enter /mnt/gpfs3_amd/share/apps/amd/gaussian/g16-A.03/g16/l303.exe)
 DipDrv:  MaxL=1.
 Leave Link  303 at Wed Aug 10 17:03:31 2022, MaxMem=  6442450944 cpu:               0.5 elap:               0.0
 (Enter /mnt/gpfs3_amd/share/apps/amd/gaussian/g16-A.03/g16/l401.exe)
 Initial guess from the checkpoint file:  "/scratch/rdu230/d3tales/high_throughput/runfiles//05XICU/gaussian/gas_phase/opt/opt_cation1.chk"
 B after Tr=    -0.000000    0.000000    0.000000
         Rot=    1.000000    0.000000    0.000000    0.000575 Ang=   0.07 deg.
 Guess basis will be translated and rotated to current coordinates.
 JPrj=2 DoOrth=T DoCkMO=T.
 Initial guess orbital symmetries:
 Alpha Orbitals:
       Occupied  (A') (A') (A') (A") (A')
       Virtual   (A') (A') (A') (A') (A") (A') (A') (A') (A") (A')
                 (A") (A') (A') (A') (A") (A") (A') (A') (A')
 Beta  Orbitals:
       Occupied  (A') (A') (A') (A')
       Virtual   (A") (A') (A') (A') (A') (A') (A") (A') (A') (A")
                 (A') (A") (A') (A') (A') (A") (A") (A') (A') (A')
 The electronic state of the initial guess is 2-A".
 Initial guess <Sx>= 0.0000 <Sy>= 0.0000 <Sz>= 0.5000 <S**2>= 0.7525 S= 0.5012
 Generating alternative initial guess.
 ExpMin= 1.22D-01 ExpMax= 2.27D+03 ExpMxC= 3.41D+02 IAcc=2 IRadAn=         4 AccDes= 0.00D+00
 Harris functional with IExCor=33909 and IRadAn=       4 diagonalized for initial guess.
 HarFok:  IExCor=33909 AccDes= 0.00D+00 IRadAn=         4 IDoV= 1 UseB2=F ITyADJ=14
 ICtDFT=  3500011 ScaDFX=  1.000000  1.000000  1.000000  1.000000
 FoFCou: FMM=F IPFlag=           0 FMFlag=      100000 FMFlg1=           0
         NFxFlg=           0 DoJE=T BraDBF=F KetDBF=T FulRan=T
         wScrn=  0.000000 ICntrl=       500 IOpCl=  0 I1Cent=   200000004 NGrid=           0
         NMat0=    1 NMatS0=      1 NMatT0=    0 NMatD0=    1 NMtDS0=    0 NMtDT0=    0
 Petite list used in FoFCou.
 Harris En= -73.7761348093166    
 Leave Link  401 at Wed Aug 10 17:03:31 2022, MaxMem=  6442450944 cpu:               4.1 elap:               0.3
 (Enter /mnt/gpfs3_amd/share/apps/amd/gaussian/g16-A.03/g16/l502.exe)
 Keep R1 and R2 ints in memory in symmetry-blocked form, NReq=13884302.
 FoFCou: FMM=F IPFlag=           0 FMFlag=           0 FMFlg1=           0
         NFxFlg=           0 DoJE=F BraDBF=F KetDBF=F FulRan=T
         wScrn=  0.000000 ICntrl=       600 IOpCl=  0 I1Cent=           0 NGrid=           0
         NMat0=    1 NMatS0=    300 NMatT0=    0 NMatD0=    1 NMtDS0=    0 NMtDT0=    0
 Petite list used in FoFCou.
 UHF open shell SCF:
 Using DIIS extrapolation, IDIIS=  1040.
 NGot=  6442450944 LenX=  6442399050 LenY=  6442397984
 Requested convergence on RMS density matrix=1.00D-08 within 512 cycles.
 Requested convergence on MAX density matrix=1.00D-06.
 Requested convergence on             energy=1.00D-06.
 No special actions if energy rises.
 Integral accuracy reduced to 1.0D-05 until final iterations.

 Cycle   1  Pass 0  IDiag  1:
 E= -75.8739755299714    
 DIIS: error= 3.21D-03 at cycle   1 NSaved=   1.
 NSaved= 1 IEnMin= 1 EnMin= -75.8739755299714     IErMin= 1 ErrMin= 3.21D-03
 ErrMax= 3.21D-03  0.00D+00 EMaxC= 1.00D-01 BMatC= 1.36D-03 BMatP= 1.36D-03
 IDIUse=3 WtCom= 9.68D-01 WtEn= 3.21D-02
 Coeff-Com:  0.100D+01
 Coeff-En:   0.100D+01
 Coeff:      0.100D+01
 Gap=     0.826 Goal=   None    Shift=    0.000
 Gap=     0.521 Goal=   None    Shift=    0.000
 GapD=    0.521 DampG=2.000 DampE=1.000 DampFc=2.0000 IDamp=-1.
 RMSDP=1.05D-03 MaxDP=6.83D-03              OVMax= 6.84D-03

 Cycle   2  Pass 0  IDiag  1:
 E= -75.8743120738010     Delta-E=       -0.000336543830 Rises=F Damp=F
 DIIS: error= 5.04D-04 at cycle   2 NSaved=   2.
 NSaved= 2 IEnMin= 2 EnMin= -75.8743120738010     IErMin= 2 ErrMin= 5.04D-04
 ErrMax= 5.04D-04  0.00D+00 EMaxC= 1.00D-01 BMatC= 3.57D-05 BMatP= 1.36D-03
 IDIUse=3 WtCom= 9.95D-01 WtEn= 5.04D-03
 Coeff-Com: -0.150D+00 0.115D+01
 Coeff-En:   0.000D+00 0.100D+01
 Coeff:     -0.149D+00 0.115D+01
 Gap=     0.825 Goal=   None    Shift=    0.000
 Gap=     0.521 Goal=   None    Shift=    0.000
 RMSDP=2.21D-04 MaxDP=1.53D-03 DE=-3.37D-04 OVMax= 2.00D-03

 Cycle   3  Pass 0  IDiag  1:
 E= -75.8743253462822     Delta-E=       -0.000013272481 Rises=F Damp=F
 DIIS: error= 1.15D-04 at cycle   3 NSaved=   3.
 NSaved= 3 IEnMin= 3 EnMin= -75.8743253462822     IErMin= 3 ErrMin= 1.15D-04
 ErrMax= 1.15D-04  0.00D+00 EMaxC= 1.00D-01 BMatC= 1.63D-06 BMatP= 3.57D-05
 IDIUse=3 WtCom= 9.99D-01 WtEn= 1.15D-03
 Coeff-Com: -0.202D-01 0.810D-01 0.939D+00
 Coeff-En:   0.000D+00 0.000D+00 0.100D+01
 Coeff:     -0.202D-01 0.809D-01 0.939D+00
 Gap=     0.824 Goal=   None    Shift=    0.000
 Gap=     0.521 Goal=   None    Shift=    0.000
 RMSDP=2.90D-05 MaxDP=2.78D-04 DE=-1.33D-05 OVMax= 2.71D-04

 Cycle   4  Pass 0  IDiag  1:
 E= -75.8743257418362     Delta-E=       -0.000000395554 Rises=F Damp=F
 DIIS: error= 4.50D-05 at cycle   4 NSaved=   4.
 NSaved= 4 IEnMin= 4 EnMin= -75.8743257418362     IErMin= 4 ErrMin= 4.50D-05
 ErrMax= 4.50D-05  0.00D+00 EMaxC= 1.00D-01 BMatC= 2.72D-07 BMatP= 1.63D-06
 IDIUse=1 WtCom= 1.00D+00 WtEn= 0.00D+00
 Coeff-Com:  0.828D-02-0.848D-01 0.253D+00 0.823D+00
 Coeff:      0.828D-02-0.848D-01 0.253D+00 0.823D+00
 Gap=     0.824 Goal=   None    Shift=    0.000
 Gap=     0.521 Goal=   None    Shift=    0.000
 RMSDP=1.11D-05 MaxDP=1.09D-04 DE=-3.96D-07 OVMax= 1.53D-04

 Cycle   5  Pass 0  IDiag  1:
 E= -75.8743258167109     Delta-E=       -0.000000074875 Rises=F Damp=F
 DIIS: error= 9.11D-06 at cycle   5 NSaved=   5.
 NSaved= 5 IEnMin= 5 EnMin= -75.8743258167109     IErMin= 5 ErrMin= 9.11D-06
 ErrMax= 9.11D-06  0.00D+00 EMaxC= 1.00D-01 BMatC= 7.16D-09 BMatP= 2.72D-07
 IDIUse=1 WtCom= 1.00D+00 WtEn= 0.00D+00
 Coeff-Com:  0.388D-03 0.249D-02-0.656D-01-0.221D-01 0.108D+01
 Coeff:      0.388D-03 0.249D-02-0.656D-01-0.221D-01 0.108D+01
 Gap=     0.824 Goal=   None    Shift=    0.000
 Gap=     0.521 Goal=   None    Shift=    0.000
 RMSDP=2.45D-06 MaxDP=2.07D-05 DE=-7.49D-08 OVMax= 3.85D-05

 Initial convergence to 1.0D-05 achieved.  Increase integral accuracy.
 Cycle   6  Pass 1  IDiag  1:
 E= -75.8743236047614     Delta-E=        0.000002211949 Rises=F Damp=F
 DIIS: error= 2.23D-06 at cycle   1 NSaved=   1.
 NSaved= 1 IEnMin= 1 EnMin= -75.8743236047614     IErMin= 1 ErrMin= 2.23D-06
 ErrMax= 2.23D-06  0.00D+00 EMaxC= 1.00D-01 BMatC= 2.76D-10 BMatP= 2.76D-10
 IDIUse=1 WtCom= 1.00D+00 WtEn= 0.00D+00
 Coeff-Com:  0.100D+01
 Coeff:      0.100D+01
 Gap=     0.824 Goal=   None    Shift=    0.000
 Gap=     0.521 Goal=   None    Shift=    0.000
 RMSDP=2.45D-06 MaxDP=2.07D-05 DE= 2.21D-06 OVMax= 7.47D-06

 Cycle   7  Pass 1  IDiag  1:
 E= -75.8743236049170     Delta-E=       -0.000000000156 Rises=F Damp=F
 DIIS: error= 9.46D-07 at cycle   2 NSaved=   2.
 NSaved= 2 IEnMin= 2 EnMin= -75.8743236049170     IErMin= 2 ErrMin= 9.46D-07
 ErrMax= 9.46D-07  0.00D+00 EMaxC= 1.00D-01 BMatC= 3.80D-11 BMatP= 2.76D-10
 IDIUse=1 WtCom= 1.00D+00 WtEn= 0.00D+00
 Coeff-Com: -0.356D+00 0.136D+01
 Coeff:     -0.356D+00 0.136D+01
 Gap=     0.824 Goal=   None    Shift=    0.000
 Gap=     0.521 Goal=   None    Shift=    0.000
 RMSDP=2.27D-07 MaxDP=2.65D-06 DE=-1.56D-10 OVMax= 4.40D-06

 Cycle   8  Pass 1  IDiag  1:
 E= -75.8743236049453     Delta-E=       -0.000000000028 Rises=F Damp=F
 DIIS: error= 2.91D-07 at cycle   3 NSaved=   3.
 NSaved= 3 IEnMin= 3 EnMin= -75.8743236049453     IErMin= 3 ErrMin= 2.91D-07
 ErrMax= 2.91D-07  0.00D+00 EMaxC= 1.00D-01 BMatC= 5.25D-12 BMatP= 3.80D-11
 IDIUse=1 WtCom= 1.00D+00 WtEn= 0.00D+00
 Coeff-Com: -0.148D+00 0.240D+00 0.907D+00
 Coeff:     -0.148D+00 0.240D+00 0.907D+00
 Gap=     0.824 Goal=   None    Shift=    0.000
 Gap=     0.521 Goal=   None    Shift=    0.000
 RMSDP=5.86D-08 MaxDP=8.08D-07 DE=-2.82D-11 OVMax= 9.73D-07

 Cycle   9  Pass 1  IDiag  1:
 E= -75.8743236049476     Delta-E=       -0.000000000002 Rises=F Damp=F
 DIIS: error= 1.21D-07 at cycle   4 NSaved=   4.
 NSaved= 4 IEnMin= 4 EnMin= -75.8743236049476     IErMin= 4 ErrMin= 1.21D-07
 ErrMax= 1.21D-07  0.00D+00 EMaxC= 1.00D-01 BMatC= 7.64D-13 BMatP= 5.25D-12
 IDIUse=1 WtCom= 1.00D+00 WtEn= 0.00D+00
 Coeff-Com:  0.360D-01-0.163D+00 0.110D+00 0.102D+01
 Coeff:      0.360D-01-0.163D+00 0.110D+00 0.102D+01
 Gap=     0.824 Goal=   None    Shift=    0.000
 Gap=     0.521 Goal=   None    Shift=    0.000
 RMSDP=2.35D-08 MaxDP=2.79D-07 DE=-2.30D-12 OVMax= 3.41D-07

 Cycle  10  Pass 1  IDiag  1:
 E= -75.8743236049479     Delta-E=       -0.000000000000 Rises=F Damp=F
 DIIS: error= 3.85D-08 at cycle   5 NSaved=   5.
 NSaved= 5 IEnMin= 5 EnMin= -75.8743236049479     IErMin= 5 ErrMin= 3.85D-08
 ErrMax= 3.85D-08  0.00D+00 EMaxC= 1.00D-01 BMatC= 8.46D-14 BMatP= 7.64D-13
 IDIUse=1 WtCom= 1.00D+00 WtEn= 0.00D+00
 Coeff-Com:  0.204D-01-0.205D-01-0.158D+00-0.177D+00 0.134D+01
 Coeff:      0.204D-01-0.205D-01-0.158D+00-0.177D+00 0.134D+01
 Gap=     0.824 Goal=   None    Shift=    0.000
 Gap=     0.521 Goal=   None    Shift=    0.000
 RMSDP=1.27D-08 MaxDP=1.42D-07 DE=-2.84D-13 OVMax= 2.11D-07

 Cycle  11  Pass 1  IDiag  1:
 E= -75.8743236049480     Delta-E=       -0.000000000000 Rises=F Damp=F
 DIIS: error= 6.63D-09 at cycle   6 NSaved=   6.
 NSaved= 6 IEnMin= 6 EnMin= -75.8743236049480     IErMin= 6 ErrMin= 6.63D-09
 ErrMax= 6.63D-09  0.00D+00 EMaxC= 1.00D-01 BMatC= 2.20D-15 BMatP= 8.46D-14
 IDIUse=1 WtCom= 1.00D+00 WtEn= 0.00D+00
 Coeff-Com: -0.588D-02 0.944D-02 0.373D-01 0.505D-03-0.353D+00 0.131D+01
 Coeff:     -0.588D-02 0.944D-02 0.373D-01 0.505D-03-0.353D+00 0.131D+01
 Gap=     0.824 Goal=   None    Shift=    0.000
 Gap=     0.521 Goal=   None    Shift=    0.000
 RMSDP=2.24D-09 MaxDP=2.30D-08 DE=-1.14D-13 OVMax= 4.50D-08

 SCF Done:  E(ULC-wHPBE) =  -75.8743236049     A.U. after   11 cycles
            NFock= 11  Conv=0.22D-08     -V/T= 2.0066
 <Sx>= 0.0000 <Sy>= 0.0000 <Sz>= 0.5000 <S**2>= 0.7525 S= 0.5012
 <L.S>= 0.000000000000E+00
 KE= 7.537542624125D+01 PE=-1.927304326226D+02 EE= 3.272797347173D+01
 Annihilation of the first spin contaminant:
 S**2 before annihilation     0.7525,   after     0.7500
 Leave Link  502 at Wed Aug 10 17:03:32 2022, MaxMem=  6442450944 cpu:              19.3 elap:               1.4
 (Enter /mnt/gpfs3_amd/share/apps/amd/gaussian/g16-A.03/g16/l701.exe)
 ... and contract with generalized density number  0.
 Compute integral first derivatives.
   2 Symmetry operations used in ECPInt.
 ECPInt:  NShTT=      78 NPrTT=     272 LenC2=      79 LenP2D=     271.
 LDataN:  DoStor=T MaxTD1= 5 Len=  102
 Leave Link  701 at Wed Aug 10 17:03:33 2022, MaxMem=  6442450944 cpu:               3.8 elap:               0.3
 (Enter /mnt/gpfs3_amd/share/apps/amd/gaussian/g16-A.03/g16/l702.exe)
 L702 exits ... SP integral derivatives will be done elsewhere.
 Leave Link  702 at Wed Aug 10 17:03:33 2022, MaxMem=  6442450944 cpu:               0.2 elap:               0.0
 (Enter /mnt/gpfs3_amd/share/apps/amd/gaussian/g16-A.03/g16/l703.exe)
 Integral derivatives from FoFJK, PRISM(SPDF).
 Compute integral first derivatives, UseDBF=F ICtDFT=           0.
 Calling FoFJK, ICntrl=      2127 FMM=F ISym2X=1 I1Cent= 0 IOpClX= 1 NMat=1 NMatS=1 NMatT=0.
 FoFJK:  IHMeth= 1 ICntrl=    2127 DoSepK=T KAlg= 0 I1Cent=           0 FoldK=F
 IRaf=         1 NMat=       1 IRICut=       1 DoRegI=T DoRafI=F ISym2E= 1 IDoP0=0 IntGTp=1.
 FoFCou: FMM=F IPFlag=           0 FMFlag=      100000 FMFlg1=         800
         NFxFlg=           0 DoJE=F BraDBF=F KetDBF=F FulRan=T
         wScrn=  0.000000 ICntrl=      2527 IOpCl=  0 I1Cent=           0 NGrid=           0
         NMat0=    1 NMatS0=      1 NMatT0=    0 NMatD0=    1 NMtDS0=    0 NMtDT0=    0
 Petite list used in FoFCou.
 Leave Link  703 at Wed Aug 10 17:03:33 2022, MaxMem=  6442450944 cpu:               7.4 elap:               0.5
 (Enter /mnt/gpfs3_amd/share/apps/amd/gaussian/g16-A.03/g16/l716.exe)
 Dipole        =-4.16260009D-05-8.98385676D-01 8.45081620D-33
 ***** Axes restored to original set *****
 -------------------------------------------------------------------
 Center     Atomic                   Forces (Hartrees/Bohr)
 Number     Number              X              Y              Z
 -------------------------------------------------------------------
      1        8           0.000113225   -0.001652260   -0.000000000
      2        1          -0.000255104    0.000786509    0.000000000
      3        1           0.000141879    0.000865751   -0.000000000
 -------------------------------------------------------------------
 Cartesian Forces:  Max     0.001652260 RMS     0.000682814
 Leave Link  716 at Wed Aug 10 17:03:33 2022, MaxMem=  6442450944 cpu:               0.2 elap:               0.0
 (Enter /mnt/gpfs3_amd/share/apps/amd/gaussian/g16-A.03/g16/l103.exe)

 GradGradGradGradGradGradGradGradGradGradGradGradGradGradGradGradGradGrad
 Berny optimization.
 Using GEDIIS/GDIIS optimizer.
 FormGI is forming the generalized inverse of G from B-inverse, IUseBI=4.
 Internal  Forces:  Max     0.001497848 RMS     0.000903928
 Search for a local minimum.
 Step number   2 out of a maximum of   20
 All quantities printed in internal units (Hartrees-Bohrs-Radians)
 RMS Force = .90393D-03 SwitMx=.10000D-02 MixMth= 2
 Mixed Optimization -- En-DIIS/RFO-DIIS
 Update second derivatives using D2CorX and points    1    2
 DE= -6.48D-04 DEPred=-6.15D-04 R= 1.05D+00
 TightC=F SS=  1.41D+00  RLast= 7.69D-02 DXNew= 5.0454D-01 2.3082D-01
 Trust test= 1.05D+00 RLast= 7.69D-02 DXMaxT set to 3.00D-01
 The second derivative matrix:
                          R1        R2        A1
           R1           0.50213
           R2           0.01225   0.49854
           A1          -0.00314  -0.00116   0.14151
 ITU=  1  0
 Use linear search instead of GDIIS.
     Eigenvalues ---    0.14148   0.48795   0.51274
 RFO step:  Lambda=-8.85435089D-06 EMin= 1.41476467D-01
 Quartic linear search produced a step of  0.08953.
 Iteration  1 RMS(Cart)=  0.00626120 RMS(Int)=  0.00002410
 Iteration  2 RMS(Cart)=  0.00002201 RMS(Int)=  0.00000000
 Iteration  3 RMS(Cart)=  0.00000000 RMS(Int)=  0.00000000
 ITry= 1 IFail=0 DXMaxC= 5.96D-03 DCOld= 1.00D+10 DXMaxT= 3.00D-01 DXLimC= 3.00D+00 Rises=F
 ClnCor:  largest displacement from symmetrization is 2.22D-16 for atom     2.
 Variable       Old X    -DE/DX   Delta X   Delta X   Delta X     New X
                                 (Linear)    (Quad)   (Total)
    R1        1.89781  -0.00025   0.00194  -0.00230  -0.00036   1.89746
    R2        1.89813  -0.00038   0.00167  -0.00237  -0.00069   1.89744
    A1        1.91060   0.00150   0.00639   0.00474   0.01114   1.92174
         Item               Value     Threshold  Converged?
 Maximum Force            0.001498     0.000450     NO 
 RMS     Force            0.000904     0.000300     NO 
 Maximum Displacement     0.005964     0.001800     NO 
 RMS     Displacement     0.006250     0.001200     NO 
 Predicted change in Energy=-8.083159D-06
 Lowest energy point so far.  Saving SCF results.
 GradGradGradGradGradGradGradGradGradGradGradGradGradGradGradGradGradGrad

 Leave Link  103 at Wed Aug 10 17:03:33 2022, MaxMem=  6442450944 cpu:               0.1 elap:               0.0
 (Enter /mnt/gpfs3_amd/share/apps/amd/gaussian/g16-A.03/g16/l202.exe)
                          Input orientation:                          
 ---------------------------------------------------------------------
 Center     Atomic      Atomic             Coordinates (Angstroms)
 Number     Number       Type             X           Y           Z
 ---------------------------------------------------------------------
      1          8           0       -0.000306    0.383432   -0.000000
      2          1           0       -0.822885   -0.192380    0.000000
      3          1           0        0.823191   -0.191051   -0.000000
 ---------------------------------------------------------------------
                    Distance matrix (angstroms):
                    1          2          3
     1  O    0.000000
     2  H    1.004090   0.000000
     3  H    1.004080   1.646077   0.000000
 Stoichiometry    H2O(1+,2)
 Framework group  CS[SG(H2O)]
 Deg. of freedom     3
 Full point group                 CS      NOp   2
 RotChk:  IX=0 Diff= 2.28D-04
 Largest Abelian subgroup         CS      NOp   2
 Largest concise Abelian subgroup C1      NOp   1
                         Standard orientation:                         
 ---------------------------------------------------------------------
 Center     Atomic      Atomic             Coordinates (Angstroms)
 Number     Number       Type             X           Y           Z
 ---------------------------------------------------------------------
      1          8           0        0.000000    0.115030    0.000000
      2          1           0        0.823038   -0.460126    0.000000
      3          1           0       -0.823038   -0.460110    0.000000
 ---------------------------------------------------------------------
 Rotational constants (GHZ):         853.4707164         370.1364879         258.1716194
 Leave Link  202 at Wed Aug 10 17:03:33 2022, MaxMem=  6442450944 cpu:               0.6 elap:               0.1
 (Enter /mnt/gpfs3_amd/share/apps/amd/gaussian/g16-A.03/g16/l301.exe)
 Standard basis: def2SVP (5D, 7F)
 Ernie: Thresh=  0.10000D-02 Tol=  0.10000D-05 Strict=F.
 There are    19 symmetry adapted cartesian basis functions of A'  symmetry.
 There are     6 symmetry adapted cartesian basis functions of A"  symmetry.
 There are    18 symmetry adapted basis functions of A'  symmetry.
 There are     6 symmetry adapted basis functions of A"  symmetry.
    24 basis functions,    39 primitive gaussians,    25 cartesian basis functions
     5 alpha electrons        4 beta electrons
       nuclear repulsion energy         8.7538652796 Hartrees.
 IExCor=33909 DFT=T Ex+Corr=LC-wHPBE ExCW=0 ScaHFX=  1.000000
 ScaDFX=  1.000000  1.000000  1.000000  1.000000 ScalE2=  1.000000  1.000000
 IRadAn=      5 IRanWt=     -1 IRanGd=            0 ICorTp=0 IEmpDi=  4
 HFx  wShort=  0.000000 wLong=  0.499400 cFull=  0.000000 cShort=  0.000000 cLong=  1.000000
 DFx  wShort=  0.000000 wLong=  0.499400 cFull=  0.000000 cShort=  1.000000 cLong=  0.000000
 NAtoms=    3 NActive=    3 NUniq=    3 SFac= 1.00D+00 NAtFMM=   60 NAOKFM=F Big=F
 Integral buffers will be    131072 words long.
 Raffenetti 2 integral format.
 Two-electron integral symmetry is turned on.
 Leave Link  301 at Wed Aug 10 17:03:33 2022, MaxMem=  6442450944 cpu:               0.4 elap:               0.0
 (Enter /mnt/gpfs3_amd/share/apps/amd/gaussian/g16-A.03/g16/l302.exe)
 NPDir=0 NMtPBC=     1 NCelOv=     1 NCel=       1 NClECP=     1 NCelD=      1
         NCelK=      1 NCelE2=     1 NClLst=     1 CellRange=     0.0.
 One-electron integrals computed using PRISM.
 One-electron integral symmetry used in STVInt
   2 Symmetry operations used in ECPInt.
 ECPInt:  NShTT=      78 NPrTT=     272 LenC2=      79 LenP2D=     271.
 LDataN:  DoStor=T MaxTD1= 4 Len=   56
 NBasis=    24 RedAO= T EigKep=  4.28D-02  NBF=    18     6
 NBsUse=    24 1.00D-06 EigRej= -1.00D+00 NBFU=    18     6
 Precomputing XC quadrature grid using
 IXCGrd= 4 IRadAn=           5 IRanWt=          -1 IRanGd=           0 AccXCQ= 0.00D+00.
 Generated NRdTot=       0 NPtTot=           0 NUsed=           0 NTot=          32
 NSgBfM=    25    25    25    25    25 MxSgAt=     3 MxSgA2=     3.
 Leave Link  302 at Wed Aug 10 17:03:34 2022, MaxMem=  6442450944 cpu:               2.6 elap:               0.2
 (Enter /mnt/gpfs3_amd/share/apps/amd/gaussian/g16-A.03/g16/l303.exe)
 DipDrv:  MaxL=1.
 Leave Link  303 at Wed Aug 10 17:03:34 2022, MaxMem=  6442450944 cpu:               0.2 elap:               0.0
 (Enter /mnt/gpfs3_amd/share/apps/amd/gaussian/g16-A.03/g16/l401.exe)
 Initial guess from the checkpoint file:  "/scratch/rdu230/d3tales/high_throughput/runfiles//05XICU/gaussian/gas_phase/opt/opt_cation1.chk"
 B after Tr=     0.000000   -0.000000   -0.000000
         Rot=    1.000000    0.000000    0.000000    0.000067 Ang=   0.01 deg.
 Guess basis will be translated and rotated to current coordinates.
 JPrj=2 DoOrth=T DoCkMO=T.
 Initial guess orbital symmetries:
 Alpha Orbitals:
       Occupied  (A') (A') (A') (A") (A')
       Virtual   (A') (A') (A') (A') (A") (A') (A') (A') (A") (A')
                 (A") (A') (A') (A') (A") (A") (A') (A') (A')
 Beta  Orbitals:
       Occupied  (A') (A') (A') (A')
       Virtual   (A") (A') (A') (A') (A') (A') (A") (A') (A') (A")
                 (A') (A") (A') (A') (A') (A") (A") (A') (A') (A')
 The electronic state of the initial guess is 2-A".
 Initial guess <Sx>= 0.0000 <Sy>= 0.0000 <Sz>= 0.5000 <S**2>= 0.7525 S= 0.5012
 Leave Link  401 at Wed Aug 10 17:03:34 2022, MaxMem=  6442450944 cpu:               0.7 elap:               0.1
 (Enter /mnt/gpfs3_amd/share/apps/amd/gaussian/g16-A.03/g16/l502.exe)
 Keep R1 and R2 ints in memory in symmetry-blocked form, NReq=13884302.
 FoFCou: FMM=F IPFlag=           0 FMFlag=           0 FMFlg1=           0
         NFxFlg=           0 DoJE=F BraDBF=F KetDBF=F FulRan=T
         wScrn=  0.000000 ICntrl=       600 IOpCl=  0 I1Cent=           0 NGrid=           0
         NMat0=    1 NMatS0=    300 NMatT0=    0 NMatD0=    1 NMtDS0=    0 NMtDT0=    0
 Petite list used in FoFCou.
 UHF open shell SCF:
 Using DIIS extrapolation, IDIIS=  1040.
 NGot=  6442450944 LenX=  6442399050 LenY=  6442397984
 Requested convergence on RMS density matrix=1.00D-08 within 512 cycles.
 Requested convergence on MAX density matrix=1.00D-06.
 Requested convergence on             energy=1.00D-06.
 No special actions if energy rises.

 Cycle   1  Pass 1  IDiag  1:
 E= -75.8743265616092    
 DIIS: error= 4.36D-04 at cycle   1 NSaved=   1.
 NSaved= 1 IEnMin= 1 EnMin= -75.8743265616092     IErMin= 1 ErrMin= 4.36D-04
 ErrMax= 4.36D-04  0.00D+00 EMaxC= 1.00D-01 BMatC= 2.22D-05 BMatP= 2.22D-05
 IDIUse=3 WtCom= 9.96D-01 WtEn= 4.36D-03
 Coeff-Com:  0.100D+01
 Coeff-En:   0.100D+01
 Coeff:      0.100D+01
 Gap=     0.823 Goal=   None    Shift=    0.000
 Gap=     0.520 Goal=   None    Shift=    0.000
 RMSDP=1.32D-04 MaxDP=8.49D-04              OVMax= 9.49D-04

 Cycle   2  Pass 1  IDiag  1:
 E= -75.8743326427569     Delta-E=       -0.000006081148 Rises=F Damp=F
 DIIS: error= 9.30D-05 at cycle   2 NSaved=   2.
 NSaved= 2 IEnMin= 2 EnMin= -75.8743326427569     IErMin= 2 ErrMin= 9.30D-05
 ErrMax= 9.30D-05  0.00D+00 EMaxC= 1.00D-01 BMatC= 8.36D-07 BMatP= 2.22D-05
 IDIUse=1 WtCom= 1.00D+00 WtEn= 0.00D+00
 Coeff-Com: -0.178D+00 0.118D+01
 Coeff:     -0.178D+00 0.118D+01
 Gap=     0.823 Goal=   None    Shift=    0.000
 Gap=     0.520 Goal=   None    Shift=    0.000
 RMSDP=3.26D-05 MaxDP=2.07D-04 DE=-6.08D-06 OVMax= 3.16D-04

 Cycle   3  Pass 1  IDiag  1:
 E= -75.8743329755060     Delta-E=       -0.000000332749 Rises=F Damp=F
 DIIS: error= 2.13D-05 at cycle   3 NSaved=   3.
 NSaved= 3 IEnMin= 3 EnMin= -75.8743329755060     IErMin= 3 ErrMin= 2.13D-05
 ErrMax= 2.13D-05  0.00D+00 EMaxC= 1.00D-01 BMatC= 3.56D-08 BMatP= 8.36D-07
 IDIUse=1 WtCom= 1.00D+00 WtEn= 0.00D+00
 Coeff-Com: -0.243D-01 0.874D-01 0.937D+00
 Coeff:     -0.243D-01 0.874D-01 0.937D+00
 Gap=     0.823 Goal=   None    Shift=    0.000
 Gap=     0.520 Goal=   None    Shift=    0.000
 RMSDP=5.13D-06 MaxDP=4.89D-05 DE=-3.33D-07 OVMax= 7.55D-05

 Cycle   4  Pass 1  IDiag  1:
 E= -75.8743329879990     Delta-E=       -0.000000012493 Rises=F Damp=F
 DIIS: error= 8.32D-06 at cycle   4 NSaved=   4.
 NSaved= 4 IEnMin= 4 EnMin= -75.8743329879990     IErMin= 4 ErrMin= 8.32D-06
 ErrMax= 8.32D-06  0.00D+00 EMaxC= 1.00D-01 BMatC= 9.48D-09 BMatP= 3.56D-08
 IDIUse=1 WtCom= 1.00D+00 WtEn= 0.00D+00
 Coeff-Com:  0.149D-01-0.119D+00 0.277D+00 0.828D+00
 Coeff:      0.149D-01-0.119D+00 0.277D+00 0.828D+00
 Gap=     0.823 Goal=   None    Shift=    0.000
 Gap=     0.520 Goal=   None    Shift=    0.000
 RMSDP=1.83D-06 MaxDP=2.06D-05 DE=-1.25D-08 OVMax= 2.27D-05

 Cycle   5  Pass 1  IDiag  1:
 E= -75.8743329904636     Delta-E=       -0.000000002465 Rises=F Damp=F
 DIIS: error= 1.99D-06 at cycle   5 NSaved=   5.
 NSaved= 5 IEnMin= 5 EnMin= -75.8743329904636     IErMin= 5 ErrMin= 1.99D-06
 ErrMax= 1.99D-06  0.00D+00 EMaxC= 1.00D-01 BMatC= 1.25D-10 BMatP= 9.48D-09
 IDIUse=1 WtCom= 1.00D+00 WtEn= 0.00D+00
 Coeff-Com: -0.918D-03 0.114D-01-0.744D-01-0.156D+00 0.122D+01
 Coeff:     -0.918D-03 0.114D-01-0.744D-01-0.156D+00 0.122D+01
 Gap=     0.823 Goal=   None    Shift=    0.000
 Gap=     0.520 Goal=   None    Shift=    0.000
 RMSDP=4.85D-07 MaxDP=4.28D-06 DE=-2.46D-09 OVMax= 9.13D-06

 Cycle   6  Pass 1  IDiag  1:
 E= -75.8743329905595     Delta-E=       -0.000000000096 Rises=F Damp=F
 DIIS: error= 2.39D-07 at cycle   6 NSaved=   6.
 NSaved= 6 IEnMin= 6 EnMin= -75.8743329905595     IErMin= 6 ErrMin= 2.39D-07
 ErrMax= 2.39D-07  0.00D+00 EMaxC= 1.00D-01 BMatC= 2.53D-12 BMatP= 1.25D-10
 IDIUse=1 WtCom= 1.00D+00 WtEn= 0.00D+00
 Coeff-Com: -0.370D-03 0.299D-02-0.359D-02-0.172D-01-0.599D-01 0.108D+01
 Coeff:     -0.370D-03 0.299D-02-0.359D-02-0.172D-01-0.599D-01 0.108D+01
 Gap=     0.823 Goal=   None    Shift=    0.000
 Gap=     0.520 Goal=   None    Shift=    0.000
 RMSDP=5.60D-08 MaxDP=6.38D-07 DE=-9.58D-11 OVMax= 1.16D-06

 Cycle   7  Pass 1  IDiag  1:
 E= -75.8743329905610     Delta-E=       -0.000000000002 Rises=F Damp=F
 DIIS: error= 4.74D-08 at cycle   7 NSaved=   7.
 NSaved= 7 IEnMin= 7 EnMin= -75.8743329905610     IErMin= 7 ErrMin= 4.74D-08
 ErrMax= 4.74D-08  0.00D+00 EMaxC= 1.00D-01 BMatC= 1.47D-13 BMatP= 2.53D-12
 IDIUse=1 WtCom= 1.00D+00 WtEn= 0.00D+00
 Coeff-Com:  0.100D-03-0.918D-03 0.252D-02 0.785D-02-0.219D-01-0.200D+00
 Coeff-Com:  0.121D+01
 Coeff:      0.100D-03-0.918D-03 0.252D-02 0.785D-02-0.219D-01-0.200D+00
 Coeff:      0.121D+01
 Gap=     0.823 Goal=   None    Shift=    0.000
 Gap=     0.520 Goal=   None    Shift=    0.000
 RMSDP=1.29D-08 MaxDP=1.69D-07 DE=-1.59D-12 OVMax= 2.54D-07

 Cycle   8  Pass 1  IDiag  1:
 E= -75.8743329905611     Delta-E=       -0.000000000000 Rises=F Damp=F
 DIIS: error= 1.60D-08 at cycle   8 NSaved=   8.
 NSaved= 8 IEnMin= 8 EnMin= -75.8743329905611     IErMin= 8 ErrMin= 1.60D-08
 ErrMax= 1.60D-08  0.00D+00 EMaxC= 1.00D-01 BMatC= 2.11D-14 BMatP= 1.47D-13
 IDIUse=1 WtCom= 1.00D+00 WtEn= 0.00D+00
 Coeff-Com: -0.366D-04 0.367D-03-0.135D-02-0.366D-02 0.181D-01 0.513D-01
 Coeff-Com: -0.781D+00 0.172D+01
 Coeff:     -0.366D-04 0.367D-03-0.135D-02-0.366D-02 0.181D-01 0.513D-01
 Coeff:     -0.781D+00 0.172D+01
 Gap=     0.823 Goal=   None    Shift=    0.000
 Gap=     0.520 Goal=   None    Shift=    0.000
 RMSDP=7.04D-09 MaxDP=7.16D-08 DE=-5.68D-14 OVMax= 1.12D-07

 SCF Done:  E(ULC-wHPBE) =  -75.8743329906     A.U. after    8 cycles
            NFock=  8  Conv=0.70D-08     -V/T= 2.0066
 <Sx>= 0.0000 <Sy>= 0.0000 <Sz>= 0.5000 <S**2>= 0.7525 S= 0.5012
 <L.S>= 0.000000000000E+00
 KE= 7.537481845770D+01 PE=-1.927336751570D+02 EE= 3.273065842912D+01
 Annihilation of the first spin contaminant:
 S**2 before annihilation     0.7525,   after     0.7500
 Leave Link  502 at Wed Aug 10 17:03:35 2022, MaxMem=  6442450944 cpu:              23.8 elap:               1.8
 (Enter /mnt/gpfs3_amd/share/apps/amd/gaussian/g16-A.03/g16/l701.exe)
 ... and contract with generalized density number  0.
 Compute integral first derivatives.
   2 Symmetry operations used in ECPInt.
 ECPInt:  NShTT=      78 NPrTT=     272 LenC2=      79 LenP2D=     271.
 LDataN:  DoStor=T MaxTD1= 5 Len=  102
 Leave Link  701 at Wed Aug 10 17:03:35 2022, MaxMem=  6442450944 cpu:               1.7 elap:               0.1
 (Enter /mnt/gpfs3_amd/share/apps/amd/gaussian/g16-A.03/g16/l702.exe)
 L702 exits ... SP integral derivatives will be done elsewhere.
 Leave Link  702 at Wed Aug 10 17:03:36 2022, MaxMem=  6442450944 cpu:               0.2 elap:               0.0
 (Enter /mnt/gpfs3_amd/share/apps/amd/gaussian/g16-A.03/g16/l703.exe)
 Integral derivatives from FoFJK, PRISM(SPDF).
 Compute integral first derivatives, UseDBF=F ICtDFT=           0.
 Calling FoFJK, ICntrl=      2127 FMM=F ISym2X=1 I1Cent= 0 IOpClX= 1 NMat=1 NMatS=1 NMatT=0.
 FoFJK:  IHMeth= 1 ICntrl=    2127 DoSepK=T KAlg= 0 I1Cent=           0 FoldK=F
 IRaf=         1 NMat=       1 IRICut=       1 DoRegI=T DoRafI=F ISym2E= 1 IDoP0=0 IntGTp=1.
 FoFCou: FMM=F IPFlag=           0 FMFlag=      100000 FMFlg1=         800
         NFxFlg=           0 DoJE=F BraDBF=F KetDBF=F FulRan=T
         wScrn=  0.000000 ICntrl=      2527 IOpCl=  0 I1Cent=           0 NGrid=           0
         NMat0=    1 NMatS0=      1 NMatT0=    0 NMatD0=    1 NMtDS0=    0 NMtDT0=    0
 Petite list used in FoFCou.
 Leave Link  703 at Wed Aug 10 17:03:36 2022, MaxMem=  6442450944 cpu:               8.0 elap:               0.5
 (Enter /mnt/gpfs3_amd/share/apps/amd/gaussian/g16-A.03/g16/l716.exe)
 Dipole        = 2.38193520D-06-8.93076755D-01-8.46397496D-33
 ***** Axes restored to original set *****
 -------------------------------------------------------------------
 Center     Atomic                   Forces (Hartrees/Bohr)
 Number     Number              X              Y              Z
 -------------------------------------------------------------------
      1        8          -0.000006054   -0.000371174   -0.000000000
      2        1           0.000140605    0.000187917    0.000000000
      3        1          -0.000134551    0.000183258   -0.000000000
 -------------------------------------------------------------------
 Cartesian Forces:  Max     0.000371174 RMS     0.000164849
 Leave Link  716 at Wed Aug 10 17:03:36 2022, MaxMem=  6442450944 cpu:               0.2 elap:               0.0
 (Enter /mnt/gpfs3_amd/share/apps/amd/gaussian/g16-A.03/g16/l103.exe)

 GradGradGradGradGradGradGradGradGradGradGradGradGradGradGradGradGradGrad
 Berny optimization.
 Using GEDIIS/GDIIS optimizer.
 FormGI is forming the generalized inverse of G from B-inverse, IUseBI=4.
 Internal  Forces:  Max     0.000222951 RMS     0.000196105
 Search for a local minimum.
 Step number   3 out of a maximum of   20
 All quantities printed in internal units (Hartrees-Bohrs-Radians)
 RMS Force = .19610D-03 SwitMx=.10000D-02 MixMth= 2
 Mixed Optimization -- En-DIIS/RFO-DIIS
 Swapping is turned off.
 Update second derivatives using D2CorX and points    1    2    3
 DE= -9.39D-06 DEPred=-8.08D-06 R= 1.16D+00
 TightC=F SS=  1.41D+00  RLast= 1.12D-02 DXNew= 5.0454D-01 3.3494D-02
 Trust test= 1.16D+00 RLast= 1.12D-02 DXMaxT set to 3.00D-01
 The second derivative matrix:
                          R1        R2        A1
           R1           0.50328
           R2           0.01155   0.49627
           A1           0.01468   0.01611   0.12347
 ITU=  1  1  0
     Eigenvalues ---    0.12224   0.48775   0.51302
 En-DIIS/RFO-DIIS/Sim-DIIS IScMMF=       -3 using points:     3    2
 RFO step:  Lambda=-3.77038503D-07.
 NNeg= 0 NGDIIS= 2 SimSw=  2.50D-03 Rises=F DC= -9.39D-06 SmlDif=  1.00D-05
 NRisDI= 0 DoIntr=F SqrtH=F CThrHd= 10.0 CDAdj=  3.0
 RMS Error=  0.8121574641D-03 NUsed= 2 OKEnD=F EnDIS=F
 InvSVX:  RCond= 3.12D-05 Info=           0 Equed=N FErr=  1.15D-15 BErr=  9.32D-17
 DidBck=F Rises=F RFO-DIIS coefs:    1.11496   -0.11496
 Iteration  1 RMS(Cart)=  0.00062888 RMS(Int)=  0.00000035
 Iteration  2 RMS(Cart)=  0.00000038 RMS(Int)=  0.00000000
 ITry= 1 IFail=0 DXMaxC= 8.22D-04 DCOld= 1.00D+10 DXMaxT= 3.00D-01 DXLimC= 3.00D+00 Rises=F
 ClnCor:  largest displacement from symmetrization is 1.11D-16 for atom     3.
 Variable       Old X    -DE/DX   Delta X   Delta X   Delta X     New X
                                 (Linear)    (Quad)   (Total)
    R1        1.89746  -0.00022  -0.00004  -0.00043  -0.00047   1.89699
    R2        1.89744  -0.00022  -0.00008  -0.00038  -0.00046   1.89697
    A1        1.92174   0.00014   0.00128  -0.00004   0.00124   1.92298
         Item               Value     Threshold  Converged?
 Maximum Force            0.000223     0.000450     YES
 RMS     Force            0.000196     0.000300     YES
 Maximum Displacement     0.000822     0.001800     YES
 RMS     Displacement     0.000629     0.001200     YES
 Predicted change in Energy=-1.885193D-07
 Optimization completed.
    -- Stationary point found.
                           ----------------------------
                           !   Optimized Parameters   !
                           ! (Angstroms and Degrees)  !
 --------------------------                            --------------------------
 ! Name  Definition              Value          Derivative Info.                !
 --------------------------------------------------------------------------------
 ! R1    R(1,2)                  1.0041         -DE/DX =   -0.0002              !
 ! R2    R(1,3)                  1.0041         -DE/DX =   -0.0002              !
 ! A1    A(2,1,3)              110.1075         -DE/DX =    0.0001              !
 --------------------------------------------------------------------------------
 Lowest energy point so far.  Saving SCF results.
 Largest change from initial coordinates is atom    3       0.040 Angstoms.
 GradGradGradGradGradGradGradGradGradGradGradGradGradGradGradGradGradGrad

 Leave Link  103 at Wed Aug 10 17:03:36 2022, MaxMem=  6442450944 cpu:               0.1 elap:               0.0
 (Enter /mnt/gpfs3_amd/share/apps/amd/gaussian/g16-A.03/g16/l202.exe)
                          Input orientation:                          
 ---------------------------------------------------------------------
 Center     Atomic      Atomic             Coordinates (Angstroms)
 Number     Number       Type             X           Y           Z
 ---------------------------------------------------------------------
      1          8           0       -0.000306    0.383432   -0.000000
      2          1           0       -0.822885   -0.192380   -0.000000
      3          1           0        0.823191   -0.191051    0.000000
 ---------------------------------------------------------------------
                    Distance matrix (angstroms):
                    1          2          3
     1  O    0.000000
     2  H    1.004090   0.000000
     3  H    1.004080   1.646077   0.000000
 Stoichiometry    H2O(1+,2)
 Framework group  CS[SG(H2O)]
 Deg. of freedom     3
 Full point group                 CS      NOp   2
 RotChk:  IX=0 Diff= 3.17D-16
 Largest Abelian subgroup         CS      NOp   2
 Largest concise Abelian subgroup C1      NOp   1
                         Standard orientation:                         
 ---------------------------------------------------------------------
 Center     Atomic      Atomic             Coordinates (Angstroms)
 Number     Number       Type             X           Y           Z
 ---------------------------------------------------------------------
      1          8           0        0.000000    0.115030    0.000000
      2          1           0        0.823038   -0.460126    0.000000
      3          1           0       -0.823038   -0.460110    0.000000
 ---------------------------------------------------------------------
 Rotational constants (GHZ):         853.4707164         370.1364879         258.1716194
 Leave Link  202 at Wed Aug 10 17:03:36 2022, MaxMem=  6442450944 cpu:               0.1 elap:               0.0
 (Enter /mnt/gpfs3_amd/share/apps/amd/gaussian/g16-A.03/g16/l601.exe)
 Copying SCF densities to generalized density rwf, IOpCl= 1 IROHF=0.

 **********************************************************************

            Population analysis using the SCF density.

 **********************************************************************

 Orbital symmetries:
 Alpha Orbitals:
       Occupied  (A') (A') (A') (A") (A')
       Virtual   (A') (A') (A') (A') (A") (A') (A') (A') (A") (A')
                 (A") (A') (A') (A') (A") (A") (A') (A') (A')
 Beta  Orbitals:
       Occupied  (A') (A') (A') (A')
       Virtual   (A") (A') (A') (A') (A') (A') (A") (A') (A') (A")
                 (A') (A") (A') (A') (A') (A") (A") (A') (A') (A')
 The electronic state is 2-A".
 Alpha  occ. eigenvalues --  -19.58099  -1.66559  -1.14508  -1.02900  -1.00093
 Alpha virt. eigenvalues --   -0.17761  -0.10058   0.31146   0.31655   0.58591
 Alpha virt. eigenvalues --    0.63683   0.74207   0.79672   1.03835   1.21128
 Alpha virt. eigenvalues --    1.29260   1.46738   1.85920   1.86343   2.49884
 Alpha virt. eigenvalues --    2.59081   2.74406   3.14287   3.41585
  Beta  occ. eigenvalues --  -19.55524  -1.59048  -1.12371  -0.97102
  Beta virt. eigenvalues --   -0.45125  -0.16775  -0.09425   0.31145   0.32609
  Beta virt. eigenvalues --    0.65314   0.68057   0.75525   0.82932   1.05950
  Beta virt. eigenvalues --    1.22544   1.31380   1.46525   1.86585   1.91223
  Beta virt. eigenvalues --    2.57899   2.67091   2.77892   3.20136   3.43036
          Condensed to atoms (all electrons):
               1          2          3
     1  O    7.033238   0.321789   0.321792
     2  H    0.321789   0.347228  -0.007430
     3  H    0.321792  -0.007430   0.347232
          Atomic-Atomic Spin Densities.
               1          2          3
     1  O    1.059476  -0.002275  -0.002275
     2  H   -0.002275  -0.026034   0.000846
     3  H   -0.002275   0.000846  -0.026034
 Mulliken charges and spin densities:
               1          2
     1  O    0.323180   1.054926
     2  H    0.338414  -0.027463
     3  H    0.338406  -0.027463
 Sum of Mulliken charges =   1.00000   1.00000
 Mulliken charges and spin densities with hydrogens summed into heavy atoms:
               1          2
     1  O    1.000000   1.000000
 Electronic spatial extent (au):  <R**2>=             14.7023
 Charge=              1.0000 electrons
 Dipole moment (field-independent basis, Debye):
    X=              0.0000    Y=             -2.2700    Z=              0.0000  Tot=              2.2700
 Quadrupole moment (field-independent basis, Debye-Ang):
   XX=             -1.5940   YY=             -4.4079   ZZ=             -4.7237
   XY=             -0.0000   XZ=              0.0000   YZ=             -0.0000
 Traceless Quadrupole moment (field-independent basis, Debye-Ang):
   XX=              1.9812   YY=             -0.8327   ZZ=             -1.1485
   XY=             -0.0000   XZ=              0.0000   YZ=             -0.0000
 Octapole moment (field-independent basis, Debye-Ang**2):
  XXX=              0.0000  YYY=             -1.4546  ZZZ=              0.0000  XYY=              0.0000
  XXY=             -2.0274  XXZ=              0.0000  XZZ=             -0.0000  YZZ=             -0.2347
  YYZ=              0.0000  XYZ=             -0.0000
 Hexadecapole moment (field-independent basis, Debye-Ang**3):
 XXXX=             -2.3304 YYYY=             -4.2423 ZZZZ=             -2.5856 XXXY=             -0.0000
 XXXZ=              0.0000 YYYX=             -0.0000 YYYZ=             -0.0000 ZZZX=              0.0000
 ZZZY=             -0.0000 XXYY=             -0.6771 XXZZ=             -1.3193 YYZZ=             -1.1819
 XXYZ=             -0.0000 YYXZ=              0.0000 ZZXY=              0.0000
 N-N= 8.753865279570D+00 E-N=-1.927336751764D+02  KE= 7.537481845770D+01
 Symmetry A'   KE= 7.265124018479D+01
 Symmetry A"   KE= 2.723578272913D+00
 Symmetry A'   SP=-1.263675579108D-14
 Symmetry A"   SP= 1.000000000000D+00
                          Isotropic Fermi Contact Couplings
        Atom                 a.u.       MegaHertz       Gauss      10(-4) cm-1
     1  O(17)              0.29796    -180.61936     -64.44948     -60.24813
     2  H(1)              -0.01402     -62.66088     -22.35896     -20.90142
     3  H(1)              -0.01402     -62.66058     -22.35885     -20.90132
 --------------------------------------------------------
       Center         ----  Spin Dipole Couplings  ----
                      3XX-RR        3YY-RR        3ZZ-RR
 --------------------------------------------------------
     1   Atom       -1.978168     -2.037609      4.015778
     2   Atom        0.077443     -0.031050     -0.046392
     3   Atom        0.077447     -0.031055     -0.046392
 --------------------------------------------------------
                        XY            XZ            YZ
 --------------------------------------------------------
     1   Atom       -0.000002      0.000000     -0.000000
     2   Atom       -0.134368     -0.000000      0.000000
     3   Atom        0.134370      0.000000     -0.000000
 --------------------------------------------------------


 ---------------------------------------------------------------------------------
              Anisotropic Spin Dipole Couplings in Principal Axis System
 ---------------------------------------------------------------------------------

       Atom             a.u.   MegaHertz   Gauss  10(-4) cm-1        Axes

              Baa    -2.0376   147.440    52.610    49.181  0.0000  1.0000 -0.0000
     1 O(17)  Bbb    -1.9782   143.139    51.076    47.746  1.0000 -0.0000  0.0000
              Bcc     4.0158  -290.579  -103.686   -96.927  0.0000  0.0000  1.0000
 
              Baa    -0.1217   -64.938   -23.172   -21.661  0.5593  0.8290  0.0000
     2 H(1)   Bbb    -0.0464   -24.753    -8.832    -8.257  0.0000  0.0000  1.0000
              Bcc     0.1681    89.691    32.004    29.918  0.8290 -0.5593  0.0000
 
              Baa    -0.1217   -64.940   -23.172   -21.662 -0.5593  0.8290  0.0000
     3 H(1)   Bbb    -0.0464   -24.753    -8.832    -8.257  0.0000  0.0000  1.0000
              Bcc     0.1681    89.693    32.005    29.918  0.8290  0.5593  0.0000
 

 ---------------------------------------------------------------------------------

 No NMR shielding tensors so no spin-rotation constants.
 Leave Link  601 at Wed Aug 10 17:03:36 2022, MaxMem=  6442450944 cpu:               3.0 elap:               0.2
 (Enter /mnt/gpfs3_amd/share/apps/amd/gaussian/g16-A.03/g16/l9999.exe)

 Test job not archived.
 1\1\GINC-ROME089\FOpt\ULC-wHPBE\def2SVP\H2O1(1+,2)\RDU230\10-Aug-2022\
 0\\#P LC-wHPBE/Def2SVP iop(3/107=0499400000, 3/108=0499400000) opt scf
 (maxcyc=512)\\H2 O1\\1,2\O,-0.0003056397,0.3834320402,0.\H,-0.82288527
 83,-0.1923798816,0.\H,0.823190918,-0.1910511586,0.\\Version=AM64L-G16R
 evA.03\State=2-A"\HF=-75.874333\S2=0.752468\S2-1=0.\S2A=0.750004\RMSD=
 7.040e-09\RMSF=1.648e-04\Dipole=0.0007095,-0.8930765,0.\Quadrupole=1.4
 729865,-0.6190922,-0.8538944,0.0016998,0.,0.\PG=CS [SG(H2O1)]\\@


 SCIENCE IS LONG AND LIFE IS SHORT.

                     DON MOSER IN THE FEBRUARY 1979 SMITHSONIAN
 Job cpu time:       0 days  0 hours  2 minutes 16.3 seconds.
 Elapsed time:       0 days  0 hours  0 minutes 10.0 seconds.
 File lengths (MBytes):  RWF=    136 Int=      0 D2E=      0 Chk=     16 Scr=     16
 Normal termination of Gaussian 16 at Wed Aug 10 17:03:36 2022.
