 Entering Gaussian System, Link 0=/mnt/gpfs3_amd/share/apps/amd/gaussian/g16-A.03/g16/g16
 Input=/scratch/rdu230/d3tales/high_throughput/runfiles//05XICU/gaussian/mol_opt/opt_mol.com
 Output=/scratch/rdu230/d3tales/high_throughput/runfiles//05XICU/gaussian/mol_opt/opt_mol.log
 Initial command:
 /mnt/gpfs3_amd/share/apps/amd/gaussian/g16-A.03/g16/l1.exe "/scratch/rdu230/d3tales/high_throughput/runfiles/05XICU/gaussian/mol_opt/Gau-2900540.inp" -scrdir="/scratch/rdu230/d3tales/high_throughput/runfiles/05XICU/gaussian/mol_opt/"
 Entering Link 1 = /mnt/gpfs3_amd/share/apps/amd/gaussian/g16-A.03/g16/l1.exe PID=   2900541.
  
 Copyright (c) 1988,1990,1992,1993,1995,1998,2003,2009,2016,
            Gaussian, Inc.  All Rights Reserved.
  
 This is part of the Gaussian(R) 16 program.  It is based on
 the Gaussian(R) 09 system (copyright 2009, Gaussian, Inc.),
 the Gaussian(R) 03 system (copyright 2003, Gaussian, Inc.),
 the Gaussian(R) 98 system (copyright 1998, Gaussian, Inc.),
 the Gaussian(R) 94 system (copyright 1995, Gaussian, Inc.),
 the Gaussian 92(TM) system (copyright 1992, Gaussian, Inc.),
 the Gaussian 90(TM) system (copyright 1990, Gaussian, Inc.),
 the Gaussian 88(TM) system (copyright 1988, Gaussian, Inc.),
 the Gaussian 86(TM) system (copyright 1986, Carnegie Mellon
 University), and the Gaussian 82(TM) system (copyright 1983,
 Carnegie Mellon University). Gaussian is a federally registered
 trademark of Gaussian, Inc.
  
 This software contains proprietary and confidential information,
 including trade secrets, belonging to Gaussian, Inc.
  
 This software is provided under written license and may be
 used, copied, transmitted, or stored only in accord with that
 written license.
  
 The following legend is applicable only to US Government
 contracts under FAR:
  
                    RESTRICTED RIGHTS LEGEND
  
 Use, reproduction and disclosure by the US Government is
 subject to restrictions as set forth in subparagraphs (a)
 and (c) of the Commercial Computer Software - Restricted
 Rights clause in FAR 52.227-19.
  
 Gaussian, Inc.
 340 Quinnipiac St., Bldg. 40, Wallingford CT 06492
  
  
 ---------------------------------------------------------------
 Warning -- This program may not be used in any manner that
 competes with the business of Gaussian, Inc. or will provide
 assistance to any competitor of Gaussian, Inc.  The licensee
 of this program is prohibited from giving any competitor of
 Gaussian, Inc. access to this program.  By using this program,
 the user acknowledges that Gaussian, Inc. is engaged in the
 business of creating and licensing software in the field of
 computational chemistry and represents and warrants to the
 licensee that it is not a competitor of Gaussian, Inc. and that
 it will not use this program in any manner prohibited above.
 ---------------------------------------------------------------
  

 Cite this work as:
 Gaussian 16, Revision A.03,
 M. J. Frisch, G. W. Trucks, H. B. Schlegel, G. E. Scuseria, 
 M. A. Robb, J. R. Cheeseman, G. Scalmani, V. Barone, 
 G. A. Petersson, H. Nakatsuji, X. Li, M. Caricato, A. V. Marenich, 
 J. Bloino, B. G. Janesko, R. Gomperts, B. Mennucci, H. P. Hratchian, 
 J. V. Ortiz, A. F. Izmaylov, J. L. Sonnenberg, D. Williams-Young, 
 F. Ding, F. Lipparini, F. Egidi, J. Goings, B. Peng, A. Petrone, 
 T. Henderson, D. Ranasinghe, V. G. Zakrzewski, J. Gao, N. Rega, 
 G. Zheng, W. Liang, M. Hada, M. Ehara, K. Toyota, R. Fukuda, 
 J. Hasegawa, M. Ishida, T. Nakajima, Y. Honda, O. Kitao, H. Nakai, 
 T. Vreven, K. Throssell, J. A. Montgomery, Jr., J. E. Peralta, 
 F. Ogliaro, M. J. Bearpark, J. J. Heyd, E. N. Brothers, K. N. Kudin, 
 V. N. Staroverov, T. A. Keith, R. Kobayashi, J. Normand, 
 K. Raghavachari, A. P. Rendell, J. C. Burant, S. S. Iyengar, 
 J. Tomasi, M. Cossi, J. M. Millam, M. Klene, C. Adamo, R. Cammi, 
 J. W. Ochterski, R. L. Martin, K. Morokuma, O. Farkas, 
 J. B. Foresman, and D. J. Fox, Gaussian, Inc., Wallingford CT, 2016.
 
 ******************************************
 Gaussian 16:  AM64L-G16RevA.03 25-Dec-2016
                10-Aug-2022 
 ******************************************
 %chk=/scratch/rdu230/d3tales/high_throughput/runfiles//05XICU/gaussian/mol_opt/o
 pt_mol.chk
 %mem=48GB
 %nprocshared=16
 Will use up to   16 processors via shared memory.
 ----------------------------------------------------------------------
 #P hf/Def2SVP iop(3/107=0499400000, 3/108=0499400000) opt scf(maxcyc=1
 024)
 ----------------------------------------------------------------------
 1/18=20,19=15,38=1/1,3;
 2/9=110,12=2,17=6,18=5,40=1/2;
 3/5=43,7=101,11=9,25=1,30=1,71=1,107=499400000,108=499400000/1,2,3;
 4//1;
 5/5=2,7=1024,38=5/2;
 6/7=2,8=2,9=2,10=2,28=1/1;
 7//1,2,3,16;
 1/18=20,19=15/3(2);
 2/9=110/2;
 99//99;
 2/9=110/2;
 3/5=43,7=101,11=9,25=1,30=1,71=1,107=499400000,108=499400000/1,2,3;
 4/5=5,16=3,69=1/1;
 5/5=2,7=1024,38=5/2;
 7//1,2,3,16;
 1/18=20,19=15/3(-5);
 2/9=110/2;
 6/7=2,8=2,9=2,10=2,19=2,28=1/1;
 99/9=1/99;
 Leave Link    1 at Wed Aug 10 16:52:23 2022, MaxMem=  6442450944 cpu:              21.2 elap:               1.4
 (Enter /mnt/gpfs3_amd/share/apps/amd/gaussian/g16-A.03/g16/l101.exe)
 -----
 H2 O1
 -----
 Symbolic Z-matrix:
 Charge =  0 Multiplicity = 1
 O                    -0.0057    0.38516   0. 
 H                    -0.79608  -0.19468   0. 
 H                     0.80178  -0.19048   0. 
 
 ITRead=  0  0  0
 MicOpt= -1 -1 -1
 NAtoms=      3 NQM=        3 NQMF=       0 NMMI=      0 NMMIF=      0
                NMic=       0 NMicF=      0.
                    Isotopes and Nuclear Properties:
 (Nuclear quadrupole moments (NQMom) in fm**2, nuclear magnetic moments (NMagM)
  in nuclear magnetons)

  Atom         1           2           3
 IAtWgt=          16           1           1
 AtmWgt=  15.9949146   1.0078250   1.0078250
 NucSpn=           0           1           1
 AtZEff=  -0.0000000  -0.0000000  -0.0000000
 NQMom=    0.0000000   0.0000000   0.0000000
 NMagM=    0.0000000   2.7928460   2.7928460
 AtZNuc=   8.0000000   1.0000000   1.0000000
 Leave Link  101 at Wed Aug 10 16:52:23 2022, MaxMem=  6442450944 cpu:               2.5 elap:               0.2
 (Enter /mnt/gpfs3_amd/share/apps/amd/gaussian/g16-A.03/g16/l103.exe)

 GradGradGradGradGradGradGradGradGradGradGradGradGradGradGradGradGradGrad
 Berny optimization.
 Initialization pass.
                           ----------------------------
                           !    Initial Parameters    !
                           ! (Angstroms and Degrees)  !
 --------------------------                            --------------------------
 ! Name  Definition              Value          Derivative Info.                !
 --------------------------------------------------------------------------------
 ! R1    R(1,2)                  0.9803         estimate D2E/DX2                !
 ! R2    R(1,3)                  0.9917         estimate D2E/DX2                !
 ! A1    A(2,1,3)              108.251          estimate D2E/DX2                !
 --------------------------------------------------------------------------------
 Trust Radius=3.00D-01 FncErr=1.00D-07 GrdErr=1.00D-07 EigMax=2.50D+02 EigMin=1.00D-04
 Number of steps in this run=     20 maximum allowed number of steps=    100.
 GradGradGradGradGradGradGradGradGradGradGradGradGradGradGradGradGradGrad

 Leave Link  103 at Wed Aug 10 16:52:23 2022, MaxMem=  6442450944 cpu:               0.5 elap:               0.1
 (Enter /mnt/gpfs3_amd/share/apps/amd/gaussian/g16-A.03/g16/l202.exe)
                          Input orientation:                          
 ---------------------------------------------------------------------
 Center     Atomic      Atomic             Coordinates (Angstroms)
 Number     Number       Type             X           Y           Z
 ---------------------------------------------------------------------
      1          8           0       -0.005703    0.385159    0.000000
      2          1           0       -0.796078   -0.194675    0.000000
      3          1           0        0.801781   -0.190484    0.000000
 ---------------------------------------------------------------------
                    Distance matrix (angstroms):
                    1          2          3
     1  O    0.000000
     2  H    0.980255   0.000000
     3  H    0.991663   1.597864   0.000000
 Stoichiometry    H2O
 Framework group  CS[SG(H2O)]
 Deg. of freedom     3
 Full point group                 CS      NOp   2
 Largest Abelian subgroup         CS      NOp   2
 Largest concise Abelian subgroup C1      NOp   1
                         Standard orientation:                         
 ---------------------------------------------------------------------
 Center     Atomic      Atomic             Coordinates (Angstroms)
 Number     Number       Type             X           Y           Z
 ---------------------------------------------------------------------
      1          8           0        0.000000    0.115560    0.000000
      2          1           0        0.798873   -0.452508   -0.000000
      3          1           0       -0.798873   -0.471975   -0.000000
 ---------------------------------------------------------------------
 Rotational constants (GHZ):         845.8824126         392.7591064         268.2196708
 Leave Link  202 at Wed Aug 10 16:52:23 2022, MaxMem=  6442450944 cpu:               0.0 elap:               0.0
 (Enter /mnt/gpfs3_amd/share/apps/amd/gaussian/g16-A.03/g16/l301.exe)
 Standard basis: def2SVP (5D, 7F)
 Ernie: Thresh=  0.10000D-02 Tol=  0.10000D-05 Strict=F.
 There are    19 symmetry adapted cartesian basis functions of A'  symmetry.
 There are     6 symmetry adapted cartesian basis functions of A"  symmetry.
 There are    18 symmetry adapted basis functions of A'  symmetry.
 There are     6 symmetry adapted basis functions of A"  symmetry.
    24 basis functions,    39 primitive gaussians,    25 cartesian basis functions
     5 alpha electrons        5 beta electrons
       nuclear repulsion energy         8.9188763696 Hartrees.
 IExCor=    0 DFT=F Ex=HF Corr=None ExCW=0 ScaHFX=  1.000000
 ScaDFX=  1.000000  1.000000  1.000000  1.000000 ScalE2=  1.000000  1.000000
 IRadAn=      5 IRanWt=     -1 IRanGd=            0 ICorTp=0 IEmpDi=  4
 HFx  wShort=  0.000000 wLong=  0.499400 cFull=  1.000000 cShort=  0.000000 cLong=  0.000000
 DFx  wShort=  0.000000 wLong=  0.499400 cFull=  1.000000 cShort=  0.000000 cLong=  0.000000
 NAtoms=    3 NActive=    3 NUniq=    3 SFac= 1.00D+00 NAtFMM=   60 NAOKFM=F Big=F
 Integral buffers will be    131072 words long.
 Raffenetti 1 integral format.
 Two-electron integral symmetry is turned on.
 Leave Link  301 at Wed Aug 10 16:52:24 2022, MaxMem=  6442450944 cpu:               0.3 elap:               0.0
 (Enter /mnt/gpfs3_amd/share/apps/amd/gaussian/g16-A.03/g16/l302.exe)
 NPDir=0 NMtPBC=     1 NCelOv=     1 NCel=       1 NClECP=     1 NCelD=      1
         NCelK=      1 NCelE2=     1 NClLst=     1 CellRange=     0.0.
 One-electron integrals computed using PRISM.
 One-electron integral symmetry used in STVInt
   2 Symmetry operations used in ECPInt.
 ECPInt:  NShTT=      78 NPrTT=     272 LenC2=      79 LenP2D=     271.
 LDataN:  DoStor=T MaxTD1= 4 Len=   56
 NBasis=    24 RedAO= T EigKep=  4.07D-02  NBF=    18     6
 NBsUse=    24 1.00D-06 EigRej= -1.00D+00 NBFU=    18     6
 Leave Link  302 at Wed Aug 10 16:52:24 2022, MaxMem=  6442450944 cpu:               1.1 elap:               0.1
 (Enter /mnt/gpfs3_amd/share/apps/amd/gaussian/g16-A.03/g16/l303.exe)
 DipDrv:  MaxL=1.
 Leave Link  303 at Wed Aug 10 16:52:24 2022, MaxMem=  6442450944 cpu:               0.1 elap:               0.0
 (Enter /mnt/gpfs3_amd/share/apps/amd/gaussian/g16-A.03/g16/l401.exe)
 ExpMin= 1.22D-01 ExpMax= 2.27D+03 ExpMxC= 3.41D+02 IAcc=3 IRadAn=         5 AccDes= 0.00D+00
 Harris functional with IExCor=  205 and IRadAn=       5 diagonalized for initial guess.
 HarFok:  IExCor=  205 AccDes= 0.00D+00 IRadAn=         5 IDoV= 1 UseB2=F ITyADJ=14
 ICtDFT=  3500011 ScaDFX=  1.000000  1.000000  1.000000  1.000000
 FoFCou: FMM=F IPFlag=           0 FMFlag=      100000 FMFlg1=           0
         NFxFlg=           0 DoJE=T BraDBF=F KetDBF=T FulRan=T
         wScrn=  0.000000 ICntrl=       500 IOpCl=  0 I1Cent=   200000004 NGrid=           0
         NMat0=    1 NMatS0=      1 NMatT0=    0 NMatD0=    1 NMtDS0=    0 NMtDT0=    0
 Petite list used in FoFCou.
 Harris En= -68.3570560973055    
 JPrj=0 DoOrth=F DoCkMO=F.
 Initial guess orbital symmetries:
       Occupied  (A') (A') (A') (A') (A")
       Virtual   (A') (A') (A') (A') (A') (A') (A") (A') (A") (A')
                 (A") (A') (A') (A') (A") (A") (A') (A') (A')
 The electronic state of the initial guess is 1-A'.
 Leave Link  401 at Wed Aug 10 16:52:24 2022, MaxMem=  6442450944 cpu:               2.8 elap:               0.2
 (Enter /mnt/gpfs3_amd/share/apps/amd/gaussian/g16-A.03/g16/l502.exe)
 Keep R1 ints in memory in symmetry-blocked form, NReq=3382472.
 FoFCou: FMM=F IPFlag=           0 FMFlag=           0 FMFlg1=           0
         NFxFlg=           0 DoJE=F BraDBF=F KetDBF=F FulRan=T
         wScrn=  0.000000 ICntrl=       600 IOpCl=  0 I1Cent=           0 NGrid=           0
         NMat0=    1 NMatS0=    300 NMatT0=    0 NMatD0=    1 NMtDS0=    0 NMtDT0=    0
 Petite list used in FoFCou.
 Closed shell SCF:
 Using DIIS extrapolation, IDIIS=  1040.
 NGot=  6442450944 LenX=  6442423464 LenY=  6442422398
 Requested convergence on RMS density matrix=1.00D-08 within1024 cycles.
 Requested convergence on MAX density matrix=1.00D-06.
 Requested convergence on             energy=1.00D-06.
 No special actions if energy rises.

 Cycle   1  Pass 1  IDiag  1:
 E= -74.8175807049937    
 DIIS: error= 3.09D-01 at cycle   1 NSaved=   1.
 NSaved= 1 IEnMin= 1 EnMin= -74.8175807049937     IErMin= 1 ErrMin= 3.09D-01
 ErrMax= 3.09D-01  0.00D+00 EMaxC= 1.00D-01 BMatC= 1.80D+00 BMatP= 1.80D+00
 IDIUse=3 WtCom= 0.00D+00 WtEn= 1.00D+00
 Coeff-Com:  0.100D+01
 Coeff-En:   0.100D+01
 Coeff:      0.100D+01
 Gap=     0.839 Goal=   None    Shift=    0.000
 GapD=    0.839 DampG=2.000 DampE=0.250 DampFc=0.5000 IDamp=-1.
 Damping current iteration by 5.00D-01
 RMSDP=6.04D-02 MaxDP=6.43D-01              OVMax= 4.45D-01

 Cycle   2  Pass 1  IDiag  1:
 E= -75.4448187771347     Delta-E=       -0.627238072141 Rises=F Damp=T
 DIIS: error= 1.16D-01 at cycle   2 NSaved=   2.
 NSaved= 2 IEnMin= 2 EnMin= -75.4448187771347     IErMin= 2 ErrMin= 1.16D-01
 ErrMax= 1.16D-01  0.00D+00 EMaxC= 1.00D-01 BMatC= 1.61D-01 BMatP= 1.80D+00
 IDIUse=3 WtCom= 0.00D+00 WtEn= 1.00D+00
 Coeff-Com: -0.313D+00 0.131D+01
 Coeff-En:   0.000D+00 0.100D+01
 Coeff:      0.000D+00 0.100D+01
 Gap=     0.756 Goal=   None    Shift=    0.000
 RMSDP=2.07D-02 MaxDP=2.39D-01 DE=-6.27D-01 OVMax= 1.38D-01

 Cycle   3  Pass 1  IDiag  1:
 E= -75.9379170314438     Delta-E=       -0.493098254309 Rises=F Damp=F
 DIIS: error= 2.79D-02 at cycle   3 NSaved=   3.
 NSaved= 3 IEnMin= 3 EnMin= -75.9379170314438     IErMin= 3 ErrMin= 2.79D-02
 ErrMax= 2.79D-02  0.00D+00 EMaxC= 1.00D-01 BMatC= 2.67D-02 BMatP= 1.61D-01
 IDIUse=3 WtCom= 7.21D-01 WtEn= 2.79D-01
 Coeff-Com:  0.351D+00-0.843D+00 0.149D+01
 Coeff-En:   0.000D+00 0.000D+00 0.100D+01
 Coeff:      0.253D+00-0.608D+00 0.135D+01
 Gap=     0.661 Goal=   None    Shift=    0.000
 RMSDP=4.51D-03 MaxDP=4.17D-02 DE=-4.93D-01 OVMax= 4.32D-02

 Cycle   4  Pass 1  IDiag  1:
 E= -75.9568658832935     Delta-E=       -0.018948851850 Rises=F Damp=F
 DIIS: error= 4.38D-03 at cycle   4 NSaved=   4.
 NSaved= 4 IEnMin= 4 EnMin= -75.9568658832935     IErMin= 4 ErrMin= 4.38D-03
 ErrMax= 4.38D-03  0.00D+00 EMaxC= 1.00D-01 BMatC= 6.05D-04 BMatP= 2.67D-02
 IDIUse=3 WtCom= 9.56D-01 WtEn= 4.38D-02
 Coeff-Com: -0.388D-01 0.845D-01-0.217D-01 0.976D+00
 Coeff-En:   0.000D+00 0.000D+00 0.000D+00 0.100D+01
 Coeff:     -0.371D-01 0.808D-01-0.207D-01 0.977D+00
 Gap=     0.667 Goal=   None    Shift=    0.000
 RMSDP=7.72D-04 MaxDP=6.56D-03 DE=-1.89D-02 OVMax= 8.19D-03

 Cycle   5  Pass 1  IDiag  1:
 E= -75.9573527408509     Delta-E=       -0.000486857557 Rises=F Damp=F
 DIIS: error= 5.20D-04 at cycle   5 NSaved=   5.
 NSaved= 5 IEnMin= 5 EnMin= -75.9573527408509     IErMin= 5 ErrMin= 5.20D-04
 ErrMax= 5.20D-04  0.00D+00 EMaxC= 1.00D-01 BMatC= 5.22D-06 BMatP= 6.05D-04
 IDIUse=3 WtCom= 9.95D-01 WtEn= 5.20D-03
 Coeff-Com:  0.111D-02-0.151D-02-0.451D-01-0.305D+00 0.135D+01
 Coeff-En:   0.000D+00 0.000D+00 0.000D+00 0.000D+00 0.100D+01
 Coeff:      0.110D-02-0.150D-02-0.448D-01-0.303D+00 0.135D+01
 Gap=     0.667 Goal=   None    Shift=    0.000
 RMSDP=2.55D-04 MaxDP=1.62D-03 DE=-4.87D-04 OVMax= 3.27D-03

 Cycle   6  Pass 1  IDiag  1:
 E= -75.9573691068228     Delta-E=       -0.000016365972 Rises=F Damp=F
 DIIS: error= 1.26D-04 at cycle   6 NSaved=   6.
 NSaved= 6 IEnMin= 6 EnMin= -75.9573691068228     IErMin= 6 ErrMin= 1.26D-04
 ErrMax= 1.26D-04  0.00D+00 EMaxC= 1.00D-01 BMatC= 2.77D-07 BMatP= 5.22D-06
 IDIUse=3 WtCom= 9.99D-01 WtEn= 1.26D-03
 Coeff-Com:  0.264D-02-0.601D-02 0.212D-01 0.608D-01-0.552D+00 0.147D+01
 Coeff-En:   0.000D+00 0.000D+00 0.000D+00 0.000D+00 0.000D+00 0.100D+01
 Coeff:      0.264D-02-0.600D-02 0.211D-01 0.608D-01-0.551D+00 0.147D+01
 Gap=     0.667 Goal=   None    Shift=    0.000
 RMSDP=5.34D-05 MaxDP=3.98D-04 DE=-1.64D-05 OVMax= 8.36D-04

 Cycle   7  Pass 1  IDiag  1:
 E= -75.9573699579788     Delta-E=       -0.000000851156 Rises=F Damp=F
 DIIS: error= 1.70D-05 at cycle   7 NSaved=   7.
 NSaved= 7 IEnMin= 7 EnMin= -75.9573699579788     IErMin= 7 ErrMin= 1.70D-05
 ErrMax= 1.70D-05  0.00D+00 EMaxC= 1.00D-01 BMatC= 9.89D-09 BMatP= 2.77D-07
 IDIUse=1 WtCom= 1.00D+00 WtEn= 0.00D+00
 Coeff-Com: -0.111D-03 0.288D-03-0.198D-03 0.240D-02 0.456D-01-0.236D+00
 Coeff-Com:  0.119D+01
 Coeff:     -0.111D-03 0.288D-03-0.198D-03 0.240D-02 0.456D-01-0.236D+00
 Coeff:      0.119D+01
 Gap=     0.667 Goal=   None    Shift=    0.000
 RMSDP=8.05D-06 MaxDP=3.86D-05 DE=-8.51D-07 OVMax= 6.34D-05

 Cycle   8  Pass 1  IDiag  1:
 E= -75.9573699748802     Delta-E=       -0.000000016901 Rises=F Damp=F
 DIIS: error= 1.98D-06 at cycle   8 NSaved=   8.
 NSaved= 8 IEnMin= 8 EnMin= -75.9573699748802     IErMin= 8 ErrMin= 1.98D-06
 ErrMax= 1.98D-06  0.00D+00 EMaxC= 1.00D-01 BMatC= 1.18D-10 BMatP= 9.89D-09
 IDIUse=1 WtCom= 1.00D+00 WtEn= 0.00D+00
 Coeff-Com: -0.228D-05-0.631D-05-0.435D-03-0.284D-02 0.193D-02 0.265D-01
 Coeff-Com: -0.286D+00 0.126D+01
 Coeff:     -0.228D-05-0.631D-05-0.435D-03-0.284D-02 0.193D-02 0.265D-01
 Coeff:     -0.286D+00 0.126D+01
 Gap=     0.667 Goal=   None    Shift=    0.000
 RMSDP=7.48D-07 MaxDP=6.61D-06 DE=-1.69D-08 OVMax= 6.49D-06

 Cycle   9  Pass 1  IDiag  1:
 E= -75.9573699750587     Delta-E=       -0.000000000178 Rises=F Damp=F
 DIIS: error= 2.38D-07 at cycle   9 NSaved=   9.
 NSaved= 9 IEnMin= 9 EnMin= -75.9573699750587     IErMin= 9 ErrMin= 2.38D-07
 ErrMax= 2.38D-07  0.00D+00 EMaxC= 1.00D-01 BMatC= 1.64D-12 BMatP= 1.18D-10
 IDIUse=1 WtCom= 1.00D+00 WtEn= 0.00D+00
 Coeff-Com: -0.354D-06 0.415D-05 0.109D-03 0.723D-03 0.353D-04-0.859D-02
 Coeff-Com:  0.836D-01-0.393D+00 0.132D+01
 Coeff:     -0.354D-06 0.415D-05 0.109D-03 0.723D-03 0.353D-04-0.859D-02
 Coeff:      0.836D-01-0.393D+00 0.132D+01
 Gap=     0.667 Goal=   None    Shift=    0.000
 RMSDP=7.49D-08 MaxDP=5.53D-07 DE=-1.78D-10 OVMax= 7.17D-07

 Cycle  10  Pass 1  IDiag  1:
 E= -75.9573699750610     Delta-E=       -0.000000000002 Rises=F Damp=F
 DIIS: error= 7.39D-08 at cycle  10 NSaved=  10.
 NSaved=10 IEnMin=10 EnMin= -75.9573699750610     IErMin=10 ErrMin= 7.39D-08
 ErrMax= 7.39D-08  0.00D+00 EMaxC= 1.00D-01 BMatC= 7.22D-14 BMatP= 1.64D-12
 IDIUse=1 WtCom= 1.00D+00 WtEn= 0.00D+00
 Coeff-Com:  0.109D-05-0.242D-05 0.824D-05 0.324D-04-0.162D-03 0.147D-03
 Coeff-Com:  0.168D-02-0.103D-01-0.237D-01 0.103D+01
 Coeff:      0.109D-05-0.242D-05 0.824D-05 0.324D-04-0.162D-03 0.147D-03
 Coeff:      0.168D-02-0.103D-01-0.237D-01 0.103D+01
 Gap=     0.667 Goal=   None    Shift=    0.000
 RMSDP=1.04D-08 MaxDP=1.27D-07 DE=-2.34D-12 OVMax= 1.04D-07

 Cycle  11  Pass 1  IDiag  1:
 E= -75.9573699750610     Delta-E=       -0.000000000000 Rises=F Damp=F
 DIIS: error= 1.06D-08 at cycle  11 NSaved=  11.
 NSaved=11 IEnMin=11 EnMin= -75.9573699750610     IErMin=11 ErrMin= 1.06D-08
 ErrMax= 1.06D-08  0.00D+00 EMaxC= 1.00D-01 BMatC= 2.93D-15 BMatP= 7.22D-14
 IDIUse=1 WtCom= 1.00D+00 WtEn= 0.00D+00
 Coeff-Com:  0.130D-07-0.814D-07-0.248D-05-0.198D-04 0.159D-04 0.217D-03
 Coeff-Com: -0.225D-02 0.101D-01-0.196D-01-0.365D+00 0.138D+01
 Coeff:      0.130D-07-0.814D-07-0.248D-05-0.198D-04 0.159D-04 0.217D-03
 Coeff:     -0.225D-02 0.101D-01-0.196D-01-0.365D+00 0.138D+01
 Gap=     0.667 Goal=   None    Shift=    0.000
 RMSDP=4.20D-09 MaxDP=3.06D-08 DE=-2.84D-14 OVMax= 3.76D-08

 SCF Done:  E(RHF) =  -75.9573699751     A.U. after   11 cycles
            NFock= 11  Conv=0.42D-08     -V/T= 2.0038
 KE= 7.566733371403D+01 PE=-1.982308712554D+02 EE= 3.768729119667D+01
 Leave Link  502 at Wed Aug 10 16:52:25 2022, MaxMem=  6442450944 cpu:               4.0 elap:               0.3
 (Enter /mnt/gpfs3_amd/share/apps/amd/gaussian/g16-A.03/g16/l601.exe)
 Copying SCF densities to generalized density rwf, IOpCl= 0 IROHF=0.

 **********************************************************************

            Population analysis using the SCF density.

 **********************************************************************

 Orbital symmetries:
       Occupied  (A') (A') (A') (A') (A")
       Virtual   (A') (A') (A') (A') (A') (A") (A') (A') (A") (A')
                 (A") (A') (A') (A') (A") (A") (A') (A') (A')
 The electronic state is 1-A'.
 Alpha  occ. eigenvalues --  -20.54806  -1.30158  -0.69488  -0.55548  -0.49447
 Alpha virt. eigenvalues --    0.17213   0.25064   0.78740   0.82498   1.18611
 Alpha virt. eigenvalues --    1.20284   1.26839   1.33426   1.58036   1.71667
 Alpha virt. eigenvalues --    1.82232   2.00500   2.50039   2.54200   3.28067
 Alpha virt. eigenvalues --    3.37069   3.50398   3.90107   4.17897
          Condensed to atoms (all electrons):
               1          2          3
     1  O    7.715816   0.338311   0.335695
     2  H    0.338311   0.495901  -0.026644
     3  H    0.335695  -0.026644   0.493559
 Mulliken charges:
               1
     1  O   -0.389822
     2  H    0.192432
     3  H    0.197390
 Sum of Mulliken charges =   0.00000
 Mulliken charges with hydrogens summed into heavy atoms:
               1
     1  O    0.000000
 Electronic spatial extent (au):  <R**2>=             19.1516
 Charge=              0.0000 electrons
 Dipole moment (field-independent basis, Debye):
    X=              0.0069    Y=             -2.1025    Z=             -0.0000  Tot=              2.1025
 Quadrupole moment (field-independent basis, Debye-Ang):
   XX=             -3.9129   YY=             -6.0411   ZZ=             -7.1082
   XY=              0.0332   XZ=              0.0000   YZ=             -0.0000
 Traceless Quadrupole moment (field-independent basis, Debye-Ang):
   XX=              1.7745   YY=             -0.3537   ZZ=             -1.4208
   XY=              0.0332   XZ=              0.0000   YZ=             -0.0000
 Octapole moment (field-independent basis, Debye-Ang**2):
  XXX=              0.0179  YYY=             -1.2015  ZZZ=             -0.0000  XYY=             -0.0218
  XXY=             -1.4012  XXZ=             -0.0000  XZZ=              0.0081  YZZ=             -0.3067
  YYZ=              0.0000  XYZ=              0.0000
 Hexadecapole moment (field-independent basis, Debye-Ang**3):
 XXXX=             -5.6136 YYYY=             -6.0547 ZZZZ=             -4.9369 XXXY=             -0.0018
 XXXZ=              0.0000 YYYX=             -0.0014 YYYZ=              0.0000 ZZZX=              0.0000
 ZZZY=             -0.0000 XXYY=             -1.5995 XXZZ=             -2.1175 YYZZ=             -1.8845
 XXYZ=             -0.0000 YYXZ=              0.0000 ZZXY=             -0.0093
 N-N= 8.918876369637D+00 E-N=-1.982308711446D+02  KE= 7.566733371403D+01
 Symmetry A'   KE= 7.108680215997D+01
 Symmetry A"   KE= 4.580531554066D+00
 No NMR shielding tensors so no spin-rotation constants.
 Leave Link  601 at Wed Aug 10 16:52:25 2022, MaxMem=  6442450944 cpu:               1.1 elap:               0.1
 (Enter /mnt/gpfs3_amd/share/apps/amd/gaussian/g16-A.03/g16/l701.exe)
 ... and contract with generalized density number  0.
 Compute integral first derivatives.
   2 Symmetry operations used in ECPInt.
 ECPInt:  NShTT=      78 NPrTT=     272 LenC2=      79 LenP2D=     271.
 LDataN:  DoStor=T MaxTD1= 5 Len=  102
 Leave Link  701 at Wed Aug 10 16:52:25 2022, MaxMem=  6442450944 cpu:               1.3 elap:               0.1
 (Enter /mnt/gpfs3_amd/share/apps/amd/gaussian/g16-A.03/g16/l702.exe)
 L702 exits ... SP integral derivatives will be done elsewhere.
 Leave Link  702 at Wed Aug 10 16:52:25 2022, MaxMem=  6442450944 cpu:               0.1 elap:               0.0
 (Enter /mnt/gpfs3_amd/share/apps/amd/gaussian/g16-A.03/g16/l703.exe)
 Integral derivatives from FoFJK, PRISM(SPDF).
 Compute integral first derivatives, UseDBF=F ICtDFT=           0.
 Calling FoFJK, ICntrl=      2127 FMM=F ISym2X=1 I1Cent= 0 IOpClX= 0 NMat=1 NMatS=1 NMatT=0.
 FoFJK:  IHMeth= 1 ICntrl=    2127 DoSepK=T KAlg= 0 I1Cent=           0 FoldK=F
 IRaf=         1 NMat=       1 IRICut=       1 DoRegI=T DoRafI=F ISym2E= 1 IDoP0=0 IntGTp=1.
 FoFCou: FMM=F IPFlag=           0 FMFlag=      100000 FMFlg1=         800
         NFxFlg=           0 DoJE=F BraDBF=F KetDBF=F FulRan=T
         wScrn=  0.000000 ICntrl=      2527 IOpCl=  0 I1Cent=           0 NGrid=           0
         NMat0=    1 NMatS0=      1 NMatT0=    0 NMatD0=    1 NMtDS0=    0 NMtDT0=    0
 Petite list used in FoFCou.
 Leave Link  703 at Wed Aug 10 16:52:26 2022, MaxMem=  6442450944 cpu:               3.3 elap:               0.2
 (Enter /mnt/gpfs3_amd/share/apps/amd/gaussian/g16-A.03/g16/l716.exe)
 Dipole        = 2.73339237D-03-8.27201185D-01-7.10365153D-36
 ***** Axes restored to original set *****
 -------------------------------------------------------------------
 Center     Atomic                   Forces (Hartrees/Bohr)
 Number     Number              X              Y              Z
 -------------------------------------------------------------------
      1        8           0.008654876   -0.039733109   -0.000000000
      2        1           0.035121790    0.017053400   -0.000000000
      3        1          -0.043776666    0.022679710    0.000000000
 -------------------------------------------------------------------
 Cartesian Forces:  Max     0.043776666 RMS     0.024963865
 Leave Link  716 at Wed Aug 10 16:52:26 2022, MaxMem=  6442450944 cpu:               0.3 elap:               0.0
 (Enter /mnt/gpfs3_amd/share/apps/amd/gaussian/g16-A.03/g16/l103.exe)

 GradGradGradGradGradGradGradGradGradGradGradGradGradGradGradGradGradGrad
 Berny optimization.
 FormGI is forming the generalized inverse of G from B-inverse, IUseBI=4.
 Internal  Forces:  Max     0.048811319 RMS     0.036637386
 Search for a local minimum.
 Step number   1 out of a maximum of   20
 All quantities printed in internal units (Hartrees-Bohrs-Radians)
 RMS Force = .36637D-01 SwitMx=.10000D-02 MixMth= 1
 Mixed Optimization -- RFO/linear search
 Second derivative matrix not updated -- first step.
 The second derivative matrix:
                          R1        R2        A1
           R1           0.51335
           R2           0.00000   0.49185
           A1           0.00000   0.00000   0.16000
 ITU=  0
     Eigenvalues ---    0.16000   0.49185   0.51335
 RFO step:  Lambda=-8.59134938D-03 EMin= 1.60000000D-01
 Linear search not attempted -- first point.
 Iteration  1 RMS(Cart)=  0.09111714 RMS(Int)=  0.00243682
 Iteration  2 RMS(Cart)=  0.00171716 RMS(Int)=  0.00000289
 Iteration  3 RMS(Cart)=  0.00000314 RMS(Int)=  0.00000000
 Iteration  4 RMS(Cart)=  0.00000000 RMS(Int)=  0.00000000
 ITry= 1 IFail=0 DXMaxC= 1.15D-01 DCOld= 1.00D+10 DXMaxT= 3.00D-01 DXLimC= 3.00D+00 Rises=F
 ClnCor:  largest displacement from symmetrization is 2.29D-16 for atom     2.
 Variable       Old X    -DE/DX   Delta X   Delta X   Delta X     New X
                                 (Linear)    (Quad)   (Total)
    R1        1.85241  -0.03841   0.00000  -0.07358  -0.07358   1.77883
    R2        1.87397  -0.04881   0.00000  -0.09754  -0.09754   1.77643
    A1        1.88934  -0.01301   0.00000  -0.07719  -0.07719   1.81215
         Item               Value     Threshold  Converged?
 Maximum Force            0.048811     0.000450     NO 
 RMS     Force            0.036637     0.000300     NO 
 Maximum Displacement     0.114765     0.001800     NO 
 RMS     Displacement     0.090566     0.001200     NO 
 Predicted change in Energy=-4.385394D-03
 Lowest energy point so far.  Saving SCF results.
 GradGradGradGradGradGradGradGradGradGradGradGradGradGradGradGradGradGrad

 Leave Link  103 at Wed Aug 10 16:52:26 2022, MaxMem=  6442450944 cpu:               0.1 elap:               0.0
 (Enter /mnt/gpfs3_amd/share/apps/amd/gaussian/g16-A.03/g16/l202.exe)
                          Input orientation:                          
 ---------------------------------------------------------------------
 Center     Atomic      Atomic             Coordinates (Angstroms)
 Number     Number       Type             X           Y           Z
 ---------------------------------------------------------------------
      1          8           0       -0.001315    0.386832   -0.000000
      2          1           0       -0.739735   -0.196961    0.000000
      3          1           0        0.741050   -0.189870   -0.000000
 ---------------------------------------------------------------------
                    Distance matrix (angstroms):
                    1          2          3
     1  O    0.000000
     2  H    0.941317   0.000000
     3  H    0.940048   1.480802   0.000000
 Stoichiometry    H2O
 Framework group  CS[SG(H2O)]
 Deg. of freedom     3
 Full point group                 CS      NOp   2
 RotChk:  IX=0 Diff= 1.61D-02
 Largest Abelian subgroup         CS      NOp   2
 Largest concise Abelian subgroup C1      NOp   1
                         Standard orientation:                         
 ---------------------------------------------------------------------
 Center     Atomic      Atomic             Coordinates (Angstroms)
 Number     Number       Type             X           Y           Z
 ---------------------------------------------------------------------
      1          8           0        0.000000    0.116050    0.000000
      2          1           0        0.740400   -0.465229   -0.000000
      3          1           0       -0.740400   -0.463172    0.000000
 ---------------------------------------------------------------------
 Rotational constants (GHZ):         838.5283507         457.3695662         295.9471907
 Leave Link  202 at Wed Aug 10 16:52:26 2022, MaxMem=  6442450944 cpu:               0.0 elap:               0.0
 (Enter /mnt/gpfs3_amd/share/apps/amd/gaussian/g16-A.03/g16/l301.exe)
 Standard basis: def2SVP (5D, 7F)
 Ernie: Thresh=  0.10000D-02 Tol=  0.10000D-05 Strict=F.
 There are    19 symmetry adapted cartesian basis functions of A'  symmetry.
 There are     6 symmetry adapted cartesian basis functions of A"  symmetry.
 There are    18 symmetry adapted basis functions of A'  symmetry.
 There are     6 symmetry adapted basis functions of A"  symmetry.
    24 basis functions,    39 primitive gaussians,    25 cartesian basis functions
     5 alpha electrons        5 beta electrons
       nuclear repulsion energy         9.3580969342 Hartrees.
 IExCor=    0 DFT=F Ex=HF Corr=None ExCW=0 ScaHFX=  1.000000
 ScaDFX=  1.000000  1.000000  1.000000  1.000000 ScalE2=  1.000000  1.000000
 IRadAn=      5 IRanWt=     -1 IRanGd=            0 ICorTp=0 IEmpDi=  4
 HFx  wShort=  0.000000 wLong=  0.499400 cFull=  1.000000 cShort=  0.000000 cLong=  0.000000
 DFx  wShort=  0.000000 wLong=  0.499400 cFull=  1.000000 cShort=  0.000000 cLong=  0.000000
 NAtoms=    3 NActive=    3 NUniq=    3 SFac= 1.00D+00 NAtFMM=   60 NAOKFM=F Big=F
 Integral buffers will be    131072 words long.
 Raffenetti 1 integral format.
 Two-electron integral symmetry is turned on.
 Leave Link  301 at Wed Aug 10 16:52:26 2022, MaxMem=  6442450944 cpu:               0.3 elap:               0.0
 (Enter /mnt/gpfs3_amd/share/apps/amd/gaussian/g16-A.03/g16/l302.exe)
 NPDir=0 NMtPBC=     1 NCelOv=     1 NCel=       1 NClECP=     1 NCelD=      1
         NCelK=      1 NCelE2=     1 NClLst=     1 CellRange=     0.0.
 One-electron integrals computed using PRISM.
 One-electron integral symmetry used in STVInt
   2 Symmetry operations used in ECPInt.
 ECPInt:  NShTT=      78 NPrTT=     272 LenC2=      79 LenP2D=     272.
 LDataN:  DoStor=T MaxTD1= 4 Len=   56
 NBasis=    24 RedAO= T EigKep=  3.62D-02  NBF=    18     6
 NBsUse=    24 1.00D-06 EigRej= -1.00D+00 NBFU=    18     6
 Leave Link  302 at Wed Aug 10 16:52:26 2022, MaxMem=  6442450944 cpu:               1.1 elap:               0.1
 (Enter /mnt/gpfs3_amd/share/apps/amd/gaussian/g16-A.03/g16/l303.exe)
 DipDrv:  MaxL=1.
 Leave Link  303 at Wed Aug 10 16:52:26 2022, MaxMem=  6442450944 cpu:               0.1 elap:               0.0
 (Enter /mnt/gpfs3_amd/share/apps/amd/gaussian/g16-A.03/g16/l401.exe)
 Initial guess from the checkpoint file:  "/scratch/rdu230/d3tales/high_throughput/runfiles//05XICU/gaussian/mol_opt/opt_mol.chk"
 B after Tr=    -0.000000   -0.000000    0.000000
         Rot=    0.999989   -0.000000   -0.000000    0.004669 Ang=   0.54 deg.
 Guess basis will be translated and rotated to current coordinates.
 JPrj=2 DoOrth=T DoCkMO=T.
 Initial guess orbital symmetries:
       Occupied  (A') (A') (A') (A') (A")
       Virtual   (A') (A') (A') (A') (A') (A") (A') (A') (A") (A')
                 (A") (A') (A') (A') (A") (A") (A') (A') (A')
 The electronic state of the initial guess is 1-A'.
 Generating alternative initial guess.
 ExpMin= 1.22D-01 ExpMax= 2.27D+03 ExpMxC= 3.41D+02 IAcc=2 IRadAn=         4 AccDes= 0.00D+00
 Harris functional with IExCor=  205 and IRadAn=       4 diagonalized for initial guess.
 HarFok:  IExCor=  205 AccDes= 0.00D+00 IRadAn=         4 IDoV= 1 UseB2=F ITyADJ=14
 ICtDFT=  3500011 ScaDFX=  1.000000  1.000000  1.000000  1.000000
 FoFCou: FMM=F IPFlag=           0 FMFlag=      100000 FMFlg1=           0
         NFxFlg=           0 DoJE=T BraDBF=F KetDBF=T FulRan=T
         wScrn=  0.000000 ICntrl=       500 IOpCl=  0 I1Cent=   200000004 NGrid=           0
         NMat0=    1 NMatS0=      1 NMatT0=    0 NMatD0=    1 NMtDS0=    0 NMtDT0=    0
 Petite list used in FoFCou.
 Harris En= -68.2914977244563    
 Leave Link  401 at Wed Aug 10 16:52:26 2022, MaxMem=  6442450944 cpu:               2.1 elap:               0.1
 (Enter /mnt/gpfs3_amd/share/apps/amd/gaussian/g16-A.03/g16/l502.exe)
 Keep R1 ints in memory in symmetry-blocked form, NReq=3382530.
 FoFCou: FMM=F IPFlag=           0 FMFlag=           0 FMFlg1=           0
         NFxFlg=           0 DoJE=F BraDBF=F KetDBF=F FulRan=T
         wScrn=  0.000000 ICntrl=       600 IOpCl=  0 I1Cent=           0 NGrid=           0
         NMat0=    1 NMatS0=    300 NMatT0=    0 NMatD0=    1 NMtDS0=    0 NMtDT0=    0
 Petite list used in FoFCou.
 Closed shell SCF:
 Using DIIS extrapolation, IDIIS=  1040.
 NGot=  6442450944 LenX=  6442423464 LenY=  6442422398
 Requested convergence on RMS density matrix=1.00D-08 within1024 cycles.
 Requested convergence on MAX density matrix=1.00D-06.
 Requested convergence on             energy=1.00D-06.
 No special actions if energy rises.

 Cycle   1  Pass 1  IDiag  1:
 E= -75.9596543070647    
 DIIS: error= 9.01D-03 at cycle   1 NSaved=   1.
 NSaved= 1 IEnMin= 1 EnMin= -75.9596543070647     IErMin= 1 ErrMin= 9.01D-03
 ErrMax= 9.01D-03  0.00D+00 EMaxC= 1.00D-01 BMatC= 1.70D-03 BMatP= 1.70D-03
 IDIUse=3 WtCom= 9.10D-01 WtEn= 9.01D-02
 Coeff-Com:  0.100D+01
 Coeff-En:   0.100D+01
 Coeff:      0.100D+01
 Gap=     0.695 Goal=   None    Shift=    0.000
 GapD=    0.695 DampG=2.000 DampE=1.000 DampFc=2.0000 IDamp=-1.
 RMSDP=2.04D-03 MaxDP=1.46D-02              OVMax= 1.21D-02

 Cycle   2  Pass 1  IDiag  1:
 E= -75.9611477718947     Delta-E=       -0.001493464830 Rises=F Damp=F
 DIIS: error= 1.77D-03 at cycle   2 NSaved=   2.
 NSaved= 2 IEnMin= 2 EnMin= -75.9611477718947     IErMin= 2 ErrMin= 1.77D-03
 ErrMax= 1.77D-03  0.00D+00 EMaxC= 1.00D-01 BMatC= 9.11D-05 BMatP= 1.70D-03
 IDIUse=3 WtCom= 9.82D-01 WtEn= 1.77D-02
 Coeff-Com: -0.302D-01 0.103D+01
 Coeff-En:   0.000D+00 0.100D+01
 Coeff:     -0.297D-01 0.103D+01
 Gap=     0.676 Goal=   None    Shift=    0.000
 RMSDP=4.42D-04 MaxDP=3.32D-03 DE=-1.49D-03 OVMax= 3.03D-03

 Cycle   3  Pass 1  IDiag  1:
 E= -75.9612242233867     Delta-E=       -0.000076451492 Rises=F Damp=F
 DIIS: error= 6.97D-04 at cycle   3 NSaved=   3.
 NSaved= 3 IEnMin= 3 EnMin= -75.9612242233867     IErMin= 3 ErrMin= 6.97D-04
 ErrMax= 6.97D-04  0.00D+00 EMaxC= 1.00D-01 BMatC= 1.64D-05 BMatP= 9.11D-05
 IDIUse=3 WtCom= 9.93D-01 WtEn= 6.97D-03
 Coeff-Com: -0.507D-01 0.271D+00 0.780D+00
 Coeff-En:   0.000D+00 0.000D+00 0.100D+01
 Coeff:     -0.504D-01 0.269D+00 0.782D+00
 Gap=     0.679 Goal=   None    Shift=    0.000
 RMSDP=1.31D-04 MaxDP=1.20D-03 DE=-7.65D-05 OVMax= 1.57D-03

 Cycle   4  Pass 1  IDiag  1:
 E= -75.9612386083794     Delta-E=       -0.000014384993 Rises=F Damp=F
 DIIS: error= 1.49D-04 at cycle   4 NSaved=   4.
 NSaved= 4 IEnMin= 4 EnMin= -75.9612386083794     IErMin= 4 ErrMin= 1.49D-04
 ErrMax= 1.49D-04  0.00D+00 EMaxC= 1.00D-01 BMatC= 5.91D-07 BMatP= 1.64D-05
 IDIUse=3 WtCom= 9.99D-01 WtEn= 1.49D-03
 Coeff-Com:  0.101D-02-0.597D-01 0.197D-01 0.104D+01
 Coeff-En:   0.000D+00 0.000D+00 0.000D+00 0.100D+01
 Coeff:      0.100D-02-0.596D-01 0.197D-01 0.104D+01
 Gap=     0.678 Goal=   None    Shift=    0.000
 RMSDP=4.01D-05 MaxDP=3.25D-04 DE=-1.44D-05 OVMax= 5.45D-04

 Cycle   5  Pass 1  IDiag  1:
 E= -75.9612395985367     Delta-E=       -0.000000990157 Rises=F Damp=F
 DIIS: error= 4.60D-05 at cycle   5 NSaved=   5.
 NSaved= 5 IEnMin= 5 EnMin= -75.9612395985367     IErMin= 5 ErrMin= 4.60D-05
 ErrMax= 4.60D-05  0.00D+00 EMaxC= 1.00D-01 BMatC= 3.32D-08 BMatP= 5.91D-07
 IDIUse=1 WtCom= 1.00D+00 WtEn= 0.00D+00
 Coeff-Com:  0.276D-02-0.316D-02-0.398D-01-0.250D+00 0.129D+01
 Coeff:      0.276D-02-0.316D-02-0.398D-01-0.250D+00 0.129D+01
 Gap=     0.678 Goal=   None    Shift=    0.000
 RMSDP=1.67D-05 MaxDP=1.08D-04 DE=-9.90D-07 OVMax= 2.53D-04

 Cycle   6  Pass 1  IDiag  1:
 E= -75.9612397007664     Delta-E=       -0.000000102230 Rises=F Damp=F
 DIIS: error= 8.69D-06 at cycle   6 NSaved=   6.
 NSaved= 6 IEnMin= 6 EnMin= -75.9612397007664     IErMin= 6 ErrMin= 8.69D-06
 ErrMax= 8.69D-06  0.00D+00 EMaxC= 1.00D-01 BMatC= 1.62D-09 BMatP= 3.32D-08
 IDIUse=1 WtCom= 1.00D+00 WtEn= 0.00D+00
 Coeff-Com: -0.935D-03 0.280D-02 0.150D-01 0.436D-01-0.460D+00 0.140D+01
 Coeff:     -0.935D-03 0.280D-02 0.150D-01 0.436D-01-0.460D+00 0.140D+01
 Gap=     0.678 Goal=   None    Shift=    0.000
 RMSDP=3.76D-06 MaxDP=2.71D-05 DE=-1.02D-07 OVMax= 5.37D-05

 Cycle   7  Pass 1  IDiag  1:
 E= -75.9612397051190     Delta-E=       -0.000000004353 Rises=F Damp=F
 DIIS: error= 1.01D-06 at cycle   7 NSaved=   7.
 NSaved= 7 IEnMin= 7 EnMin= -75.9612397051190     IErMin= 7 ErrMin= 1.01D-06
 ErrMax= 1.01D-06  0.00D+00 EMaxC= 1.00D-01 BMatC= 2.30D-11 BMatP= 1.62D-09
 IDIUse=1 WtCom= 1.00D+00 WtEn= 0.00D+00
 Coeff-Com:  0.141D-03-0.503D-03-0.265D-02-0.364D-02 0.757D-01-0.316D+00
 Coeff-Com:  0.125D+01
 Coeff:      0.141D-03-0.503D-03-0.265D-02-0.364D-02 0.757D-01-0.316D+00
 Coeff:      0.125D+01
 Gap=     0.678 Goal=   None    Shift=    0.000
 RMSDP=3.08D-07 MaxDP=2.94D-06 DE=-4.35D-09 OVMax= 3.43D-06

 Cycle   8  Pass 1  IDiag  1:
 E= -75.9612397051641     Delta-E=       -0.000000000045 Rises=F Damp=F
 DIIS: error= 1.66D-07 at cycle   8 NSaved=   8.
 NSaved= 8 IEnMin= 8 EnMin= -75.9612397051641     IErMin= 8 ErrMin= 1.66D-07
 ErrMax= 1.66D-07  0.00D+00 EMaxC= 1.00D-01 BMatC= 6.34D-13 BMatP= 2.30D-11
 IDIUse=1 WtCom= 1.00D+00 WtEn= 0.00D+00
 Coeff-Com: -0.933D-05 0.520D-04 0.221D-03-0.230D-03-0.576D-02 0.366D-01
 Coeff-Com: -0.271D+00 0.124D+01
 Coeff:     -0.933D-05 0.520D-04 0.221D-03-0.230D-03-0.576D-02 0.366D-01
 Coeff:     -0.271D+00 0.124D+01
 Gap=     0.678 Goal=   None    Shift=    0.000
 RMSDP=4.60D-08 MaxDP=4.31D-07 DE=-4.51D-11 OVMax= 6.40D-07

 Cycle   9  Pass 1  IDiag  1:
 E= -75.9612397051653     Delta-E=       -0.000000000001 Rises=F Damp=F
 DIIS: error= 3.69D-08 at cycle   9 NSaved=   9.
 NSaved= 9 IEnMin= 9 EnMin= -75.9612397051653     IErMin= 9 ErrMin= 3.69D-08
 ErrMax= 3.69D-08  0.00D+00 EMaxC= 1.00D-01 BMatC= 2.30D-14 BMatP= 6.34D-13
 IDIUse=1 WtCom= 1.00D+00 WtEn= 0.00D+00
 Coeff-Com: -0.482D-05 0.141D-04 0.877D-04 0.205D-03-0.265D-02 0.951D-02
 Coeff-Com: -0.212D-01-0.149D+00 0.116D+01
 Coeff:     -0.482D-05 0.141D-04 0.877D-04 0.205D-03-0.265D-02 0.951D-02
 Coeff:     -0.212D-01-0.149D+00 0.116D+01
 Gap=     0.678 Goal=   None    Shift=    0.000
 RMSDP=9.00D-09 MaxDP=7.53D-08 DE=-1.18D-12 OVMax= 1.18D-07

 SCF Done:  E(RHF) =  -75.9612397052     A.U. after    9 cycles
            NFock=  9  Conv=0.90D-08     -V/T= 2.0017
 KE= 7.583518906765D+01 PE=-1.991629679498D+02 EE= 3.800844224280D+01
 Leave Link  502 at Wed Aug 10 16:52:26 2022, MaxMem=  6442450944 cpu:               2.8 elap:               0.2
 (Enter /mnt/gpfs3_amd/share/apps/amd/gaussian/g16-A.03/g16/l701.exe)
 ... and contract with generalized density number  0.
 Compute integral first derivatives.
   2 Symmetry operations used in ECPInt.
 ECPInt:  NShTT=      78 NPrTT=     272 LenC2=      79 LenP2D=     272.
 LDataN:  DoStor=T MaxTD1= 5 Len=  102
 Leave Link  701 at Wed Aug 10 16:52:26 2022, MaxMem=  6442450944 cpu:               1.3 elap:               0.1
 (Enter /mnt/gpfs3_amd/share/apps/amd/gaussian/g16-A.03/g16/l702.exe)
 L702 exits ... SP integral derivatives will be done elsewhere.
 Leave Link  702 at Wed Aug 10 16:52:26 2022, MaxMem=  6442450944 cpu:               0.1 elap:               0.0
 (Enter /mnt/gpfs3_amd/share/apps/amd/gaussian/g16-A.03/g16/l703.exe)
 Integral derivatives from FoFJK, PRISM(SPDF).
 Compute integral first derivatives, UseDBF=F ICtDFT=           0.
 Calling FoFJK, ICntrl=      2127 FMM=F ISym2X=1 I1Cent= 0 IOpClX= 0 NMat=1 NMatS=1 NMatT=0.
 FoFJK:  IHMeth= 1 ICntrl=    2127 DoSepK=T KAlg= 0 I1Cent=           0 FoldK=F
 IRaf=         1 NMat=       1 IRICut=       1 DoRegI=T DoRafI=F ISym2E= 1 IDoP0=0 IntGTp=1.
 FoFCou: FMM=F IPFlag=           0 FMFlag=      100000 FMFlg1=         800
         NFxFlg=           0 DoJE=F BraDBF=F KetDBF=F FulRan=T
         wScrn=  0.000000 ICntrl=      2527 IOpCl=  0 I1Cent=           0 NGrid=           0
         NMat0=    1 NMatS0=      1 NMatT0=    0 NMatD0=    1 NMtDS0=    0 NMtDT0=    0
 Petite list used in FoFCou.
 Leave Link  703 at Wed Aug 10 16:52:27 2022, MaxMem=  6442450944 cpu:               3.3 elap:               0.2
 (Enter /mnt/gpfs3_amd/share/apps/amd/gaussian/g16-A.03/g16/l716.exe)
 Dipole        =-3.12754289D-04-8.35910073D-01-4.14323336D-33
 ***** Axes restored to original set *****
 -------------------------------------------------------------------
 Center     Atomic                   Forces (Hartrees/Bohr)
 Number     Number              X              Y              Z
 -------------------------------------------------------------------
      1        8          -0.001250770    0.003187380   -0.000000000
      2        1          -0.005527415   -0.001137287   -0.000000000
      3        1           0.006778184   -0.002050093    0.000000000
 -------------------------------------------------------------------
 Cartesian Forces:  Max     0.006778184 RMS     0.003226905
 Leave Link  716 at Wed Aug 10 16:52:27 2022, MaxMem=  6442450944 cpu:               0.1 elap:               0.0
 (Enter /mnt/gpfs3_amd/share/apps/amd/gaussian/g16-A.03/g16/l103.exe)

 GradGradGradGradGradGradGradGradGradGradGradGradGradGradGradGradGradGrad
 Berny optimization.
 Using GEDIIS/GDIIS optimizer.
 FormGI is forming the generalized inverse of G from B-inverse, IUseBI=4.
 Internal  Forces:  Max     0.006610490 RMS     0.005460828
 Search for a local minimum.
 Step number   2 out of a maximum of   20
 All quantities printed in internal units (Hartrees-Bohrs-Radians)
 RMS Force = .54608D-02 SwitMx=.10000D-02 MixMth= 1
 Mixed Optimization -- RFO/linear search
 Update second derivatives using D2CorX and points    1    2
 DE= -3.87D-03 DEPred=-4.39D-03 R= 8.82D-01
 TightC=F SS=  1.41D+00  RLast= 1.45D-01 DXNew= 5.0454D-01 4.3356D-01
 Trust test= 8.82D-01 RLast= 1.45D-01 DXMaxT set to 4.34D-01
 The second derivative matrix:
                          R1        R2        A1
           R1           0.53334
           R2           0.02645   0.52679
           A1           0.02102   0.02713   0.17272
 ITU=  1  0
 Use linear search instead of GDIIS.
     Eigenvalues ---    0.16966   0.50353   0.55966
 RFO step:  Lambda=-2.25805146D-05 EMin= 1.69655919D-01
 Quartic linear search produced a step of -0.12035.
 Iteration  1 RMS(Cart)=  0.01504434 RMS(Int)=  0.00009226
 Iteration  2 RMS(Cart)=  0.00006013 RMS(Int)=  0.00000000
 Iteration  3 RMS(Cart)=  0.00000000 RMS(Int)=  0.00000000
 ITry= 1 IFail=0 DXMaxC= 1.81D-02 DCOld= 1.00D+10 DXMaxT= 4.34D-01 DXLimC= 3.00D+00 Rises=F
 ClnCor:  largest displacement from symmetrization is 1.20D-15 for atom     3.
 Variable       Old X    -DE/DX   Delta X   Delta X   Delta X     New X
                                 (Linear)    (Quad)   (Total)
    R1        1.77883   0.00504   0.00886  -0.00177   0.00708   1.78591
    R2        1.77643   0.00661   0.01174  -0.00205   0.00968   1.78612
    A1        1.81215   0.00451   0.00929   0.01090   0.02019   1.83234
         Item               Value     Threshold  Converged?
 Maximum Force            0.006610     0.000450     NO 
 RMS     Force            0.005461     0.000300     NO 
 Maximum Displacement     0.018092     0.001800     NO 
 RMS     Displacement     0.015045     0.001200     NO 
 Predicted change in Energy=-1.073889D-04
 Lowest energy point so far.  Saving SCF results.
 GradGradGradGradGradGradGradGradGradGradGradGradGradGradGradGradGradGrad

 Leave Link  103 at Wed Aug 10 16:52:27 2022, MaxMem=  6442450944 cpu:               0.1 elap:               0.0
 (Enter /mnt/gpfs3_amd/share/apps/amd/gaussian/g16-A.03/g16/l202.exe)
                          Input orientation:                          
 ---------------------------------------------------------------------
 Center     Atomic      Atomic             Coordinates (Angstroms)
 Number     Number       Type             X           Y           Z
 ---------------------------------------------------------------------
      1          8           0       -0.001786    0.383629   -0.000000
      2          1           0       -0.748837   -0.195216   -0.000000
      3          1           0        0.750624   -0.188413    0.000000
 ---------------------------------------------------------------------
                    Distance matrix (angstroms):
                    1          2          3
     1  O    0.000000
     2  H    0.945064   0.000000
     3  H    0.945173   1.499476   0.000000
 Stoichiometry    H2O
 Framework group  CS[SG(H2O)]
 Deg. of freedom     3
 Full point group                 CS      NOp   2
 RotChk:  IX=0 Diff= 1.78D-03
 Largest Abelian subgroup         CS      NOp   2
 Largest concise Abelian subgroup C1      NOp   1
                         Standard orientation:                         
 ---------------------------------------------------------------------
 Center     Atomic      Atomic             Coordinates (Angstroms)
 Number     Number       Type             X           Y           Z
 ---------------------------------------------------------------------
      1          8           0        0.000000    0.115090   -0.000000
      2          1           0        0.749738   -0.460270   -0.000000
      3          1           0       -0.749738   -0.460449    0.000000
 ---------------------------------------------------------------------
 Rotational constants (GHZ):         852.5765360         446.0492189         292.8411796
 Leave Link  202 at Wed Aug 10 16:52:27 2022, MaxMem=  6442450944 cpu:               0.0 elap:               0.0
 (Enter /mnt/gpfs3_amd/share/apps/amd/gaussian/g16-A.03/g16/l301.exe)
 Standard basis: def2SVP (5D, 7F)
 Ernie: Thresh=  0.10000D-02 Tol=  0.10000D-05 Strict=F.
 There are    19 symmetry adapted cartesian basis functions of A'  symmetry.
 There are     6 symmetry adapted cartesian basis functions of A"  symmetry.
 There are    18 symmetry adapted basis functions of A'  symmetry.
 There are     6 symmetry adapted basis functions of A"  symmetry.
    24 basis functions,    39 primitive gaussians,    25 cartesian basis functions
     5 alpha electrons        5 beta electrons
       nuclear repulsion energy         9.3113975620 Hartrees.
 IExCor=    0 DFT=F Ex=HF Corr=None ExCW=0 ScaHFX=  1.000000
 ScaDFX=  1.000000  1.000000  1.000000  1.000000 ScalE2=  1.000000  1.000000
 IRadAn=      5 IRanWt=     -1 IRanGd=            0 ICorTp=0 IEmpDi=  4
 HFx  wShort=  0.000000 wLong=  0.499400 cFull=  1.000000 cShort=  0.000000 cLong=  0.000000
 DFx  wShort=  0.000000 wLong=  0.499400 cFull=  1.000000 cShort=  0.000000 cLong=  0.000000
 NAtoms=    3 NActive=    3 NUniq=    3 SFac= 1.00D+00 NAtFMM=   60 NAOKFM=F Big=F
 Integral buffers will be    131072 words long.
 Raffenetti 1 integral format.
 Two-electron integral symmetry is turned on.
 Leave Link  301 at Wed Aug 10 16:52:27 2022, MaxMem=  6442450944 cpu:               0.4 elap:               0.0
 (Enter /mnt/gpfs3_amd/share/apps/amd/gaussian/g16-A.03/g16/l302.exe)
 NPDir=0 NMtPBC=     1 NCelOv=     1 NCel=       1 NClECP=     1 NCelD=      1
         NCelK=      1 NCelE2=     1 NClLst=     1 CellRange=     0.0.
 One-electron integrals computed using PRISM.
 One-electron integral symmetry used in STVInt
   2 Symmetry operations used in ECPInt.
 ECPInt:  NShTT=      78 NPrTT=     272 LenC2=      79 LenP2D=     271.
 LDataN:  DoStor=T MaxTD1= 4 Len=   56
 NBasis=    24 RedAO= T EigKep=  3.67D-02  NBF=    18     6
 NBsUse=    24 1.00D-06 EigRej= -1.00D+00 NBFU=    18     6
 Leave Link  302 at Wed Aug 10 16:52:27 2022, MaxMem=  6442450944 cpu:               1.1 elap:               0.1
 (Enter /mnt/gpfs3_amd/share/apps/amd/gaussian/g16-A.03/g16/l303.exe)
 DipDrv:  MaxL=1.
 Leave Link  303 at Wed Aug 10 16:52:27 2022, MaxMem=  6442450944 cpu:               0.1 elap:               0.0
 (Enter /mnt/gpfs3_amd/share/apps/amd/gaussian/g16-A.03/g16/l401.exe)
 Initial guess from the checkpoint file:  "/scratch/rdu230/d3tales/high_throughput/runfiles//05XICU/gaussian/mol_opt/opt_mol.chk"
 B after Tr=     0.000000    0.000000    0.000000
         Rot=    1.000000   -0.000000    0.000000   -0.000509 Ang=  -0.06 deg.
 Guess basis will be translated and rotated to current coordinates.
 JPrj=2 DoOrth=T DoCkMO=T.
 Initial guess orbital symmetries:
       Occupied  (A') (A') (A') (A') (A")
       Virtual   (A') (A') (A') (A') (A') (A") (A') (A') (A") (A')
                 (A") (A') (A') (A') (A") (A") (A') (A') (A')
 The electronic state of the initial guess is 1-A'.
 Leave Link  401 at Wed Aug 10 16:52:27 2022, MaxMem=  6442450944 cpu:               0.5 elap:               0.0
 (Enter /mnt/gpfs3_amd/share/apps/amd/gaussian/g16-A.03/g16/l502.exe)
 Keep R1 ints in memory in symmetry-blocked form, NReq=3382530.
 FoFCou: FMM=F IPFlag=           0 FMFlag=           0 FMFlg1=           0
         NFxFlg=           0 DoJE=F BraDBF=F KetDBF=F FulRan=T
         wScrn=  0.000000 ICntrl=       600 IOpCl=  0 I1Cent=           0 NGrid=           0
         NMat0=    1 NMatS0=    300 NMatT0=    0 NMatD0=    1 NMtDS0=    0 NMtDT0=    0
 Petite list used in FoFCou.
 Closed shell SCF:
 Using DIIS extrapolation, IDIIS=  1040.
 NGot=  6442450944 LenX=  6442423464 LenY=  6442422398
 Requested convergence on RMS density matrix=1.00D-08 within1024 cycles.
 Requested convergence on MAX density matrix=1.00D-06.
 Requested convergence on             energy=1.00D-06.
 No special actions if energy rises.

 Cycle   1  Pass 1  IDiag  1:
 E= -75.9613009656920    
 DIIS: error= 1.14D-03 at cycle   1 NSaved=   1.
 NSaved= 1 IEnMin= 1 EnMin= -75.9613009656920     IErMin= 1 ErrMin= 1.14D-03
 ErrMax= 1.14D-03  0.00D+00 EMaxC= 1.00D-01 BMatC= 3.89D-05 BMatP= 3.89D-05
 IDIUse=3 WtCom= 9.89D-01 WtEn= 1.14D-02
 Coeff-Com:  0.100D+01
 Coeff-En:   0.100D+01
 Coeff:      0.100D+01
 Gap=     0.677 Goal=   None    Shift=    0.000
 GapD=    0.677 DampG=2.000 DampE=1.000 DampFc=2.0000 IDamp=-1.
 RMSDP=3.33D-04 MaxDP=2.09D-03              OVMax= 1.98D-03

 Cycle   2  Pass 1  IDiag  1:
 E= -75.9613363286343     Delta-E=       -0.000035362942 Rises=F Damp=F
 DIIS: error= 1.76D-04 at cycle   2 NSaved=   2.
 NSaved= 2 IEnMin= 2 EnMin= -75.9613363286343     IErMin= 2 ErrMin= 1.76D-04
 ErrMax= 1.76D-04  0.00D+00 EMaxC= 1.00D-01 BMatC= 1.38D-06 BMatP= 3.89D-05
 IDIUse=3 WtCom= 9.98D-01 WtEn= 1.76D-03
 Coeff-Com: -0.120D+00 0.112D+01
 Coeff-En:   0.000D+00 0.100D+01
 Coeff:     -0.120D+00 0.112D+01
 Gap=     0.677 Goal=   None    Shift=    0.000
 RMSDP=7.12D-05 MaxDP=4.42D-04 DE=-3.54D-05 OVMax= 4.95D-04

 Cycle   3  Pass 1  IDiag  1:
 E= -75.9613377505671     Delta-E=       -0.000001421933 Rises=F Damp=F
 DIIS: error= 7.79D-05 at cycle   3 NSaved=   3.
 NSaved= 3 IEnMin= 3 EnMin= -75.9613377505671     IErMin= 3 ErrMin= 7.79D-05
 ErrMax= 7.79D-05  0.00D+00 EMaxC= 1.00D-01 BMatC= 1.93D-07 BMatP= 1.38D-06
 IDIUse=1 WtCom= 1.00D+00 WtEn= 0.00D+00
 Coeff-Com: -0.541D-01 0.307D+00 0.748D+00
 Coeff:     -0.541D-01 0.307D+00 0.748D+00
 Gap=     0.677 Goal=   None    Shift=    0.000
 RMSDP=1.31D-05 MaxDP=1.15D-04 DE=-1.42D-06 OVMax= 1.31D-04

 Cycle   4  Pass 1  IDiag  1:
 E= -75.9613378940188     Delta-E=       -0.000000143452 Rises=F Damp=F
 DIIS: error= 1.10D-05 at cycle   4 NSaved=   4.
 NSaved= 4 IEnMin= 4 EnMin= -75.9613378940188     IErMin= 4 ErrMin= 1.10D-05
 ErrMax= 1.10D-05  0.00D+00 EMaxC= 1.00D-01 BMatC= 5.17D-09 BMatP= 1.93D-07
 IDIUse=1 WtCom= 1.00D+00 WtEn= 0.00D+00
 Coeff-Com:  0.399D-02-0.535D-01 0.382D-01 0.101D+01
 Coeff:      0.399D-02-0.535D-01 0.382D-01 0.101D+01
 Gap=     0.677 Goal=   None    Shift=    0.000
 RMSDP=3.13D-06 MaxDP=1.79D-05 DE=-1.43D-07 OVMax= 3.18D-05

 Cycle   5  Pass 1  IDiag  1:
 E= -75.9613378999180     Delta-E=       -0.000000005899 Rises=F Damp=F
 DIIS: error= 2.61D-06 at cycle   5 NSaved=   5.
 NSaved= 5 IEnMin= 5 EnMin= -75.9613378999180     IErMin= 5 ErrMin= 2.61D-06
 ErrMax= 2.61D-06  0.00D+00 EMaxC= 1.00D-01 BMatC= 1.19D-10 BMatP= 5.17D-09
 IDIUse=1 WtCom= 1.00D+00 WtEn= 0.00D+00
 Coeff-Com:  0.131D-02-0.444D-02-0.238D-01-0.804D-01 0.111D+01
 Coeff:      0.131D-02-0.444D-02-0.238D-01-0.804D-01 0.111D+01
 Gap=     0.677 Goal=   None    Shift=    0.000
 RMSDP=7.00D-07 MaxDP=5.13D-06 DE=-5.90D-09 OVMax= 9.94D-06

 Cycle   6  Pass 1  IDiag  1:
 E= -75.9613379001846     Delta-E=       -0.000000000267 Rises=F Damp=F
 DIIS: error= 6.16D-07 at cycle   6 NSaved=   6.
 NSaved= 6 IEnMin= 6 EnMin= -75.9613379001846     IErMin= 6 ErrMin= 6.16D-07
 ErrMax= 6.16D-07  0.00D+00 EMaxC= 1.00D-01 BMatC= 9.44D-12 BMatP= 1.19D-10
 IDIUse=1 WtCom= 1.00D+00 WtEn= 0.00D+00
 Coeff-Com: -0.569D-03 0.287D-02 0.846D-02-0.689D-03-0.423D+00 0.141D+01
 Coeff:     -0.569D-03 0.287D-02 0.846D-02-0.689D-03-0.423D+00 0.141D+01
 Gap=     0.677 Goal=   None    Shift=    0.000
 RMSDP=2.69D-07 MaxDP=1.84D-06 DE=-2.67D-10 OVMax= 3.80D-06

 Cycle   7  Pass 1  IDiag  1:
 E= -75.9613379002128     Delta-E=       -0.000000000028 Rises=F Damp=F
 DIIS: error= 1.33D-07 at cycle   7 NSaved=   7.
 NSaved= 7 IEnMin= 7 EnMin= -75.9613379002128     IErMin= 7 ErrMin= 1.33D-07
 ErrMax= 1.33D-07  0.00D+00 EMaxC= 1.00D-01 BMatC= 3.31D-13 BMatP= 9.44D-12
 IDIUse=1 WtCom= 1.00D+00 WtEn= 0.00D+00
 Coeff-Com:  0.989D-04-0.642D-03-0.106D-02 0.488D-02 0.630D-01-0.391D+00
 Coeff-Com:  0.133D+01
 Coeff:      0.989D-04-0.642D-03-0.106D-02 0.488D-02 0.630D-01-0.391D+00
 Coeff:      0.133D+01
 Gap=     0.677 Goal=   None    Shift=    0.000
 RMSDP=5.35D-08 MaxDP=4.01D-07 DE=-2.83D-11 OVMax= 7.64D-07

 Cycle   8  Pass 1  IDiag  1:
 E= -75.9613379002140     Delta-E=       -0.000000000001 Rises=F Damp=F
 DIIS: error= 1.05D-08 at cycle   8 NSaved=   8.
 NSaved= 8 IEnMin= 8 EnMin= -75.9613379002140     IErMin= 8 ErrMin= 1.05D-08
 ErrMax= 1.05D-08  0.00D+00 EMaxC= 1.00D-01 BMatC= 3.97D-15 BMatP= 3.31D-13
 IDIUse=1 WtCom= 1.00D+00 WtEn= 0.00D+00
 Coeff-Com: -0.479D-05 0.478D-04 0.329D-04-0.890D-03-0.115D-02 0.340D-01
 Coeff-Com: -0.209D+00 0.118D+01
 Coeff:     -0.479D-05 0.478D-04 0.329D-04-0.890D-03-0.115D-02 0.340D-01
 Coeff:     -0.209D+00 0.118D+01
 Gap=     0.677 Goal=   None    Shift=    0.000
 RMSDP=4.02D-09 MaxDP=2.84D-08 DE=-1.14D-12 OVMax= 5.11D-08

 SCF Done:  E(RHF) =  -75.9613379002     A.U. after    8 cycles
            NFock=  8  Conv=0.40D-08     -V/T= 2.0019
 KE= 7.581571117883D+01 PE=-1.990652001412D+02 EE= 3.797675350014D+01
 Leave Link  502 at Wed Aug 10 16:52:27 2022, MaxMem=  6442450944 cpu:               2.8 elap:               0.2
 (Enter /mnt/gpfs3_amd/share/apps/amd/gaussian/g16-A.03/g16/l701.exe)
 ... and contract with generalized density number  0.
 Compute integral first derivatives.
   2 Symmetry operations used in ECPInt.
 ECPInt:  NShTT=      78 NPrTT=     272 LenC2=      79 LenP2D=     271.
 LDataN:  DoStor=T MaxTD1= 5 Len=  102
 Leave Link  701 at Wed Aug 10 16:52:27 2022, MaxMem=  6442450944 cpu:               1.3 elap:               0.1
 (Enter /mnt/gpfs3_amd/share/apps/amd/gaussian/g16-A.03/g16/l702.exe)
 L702 exits ... SP integral derivatives will be done elsewhere.
 Leave Link  702 at Wed Aug 10 16:52:27 2022, MaxMem=  6442450944 cpu:               0.1 elap:               0.0
 (Enter /mnt/gpfs3_amd/share/apps/amd/gaussian/g16-A.03/g16/l703.exe)
 Integral derivatives from FoFJK, PRISM(SPDF).
 Compute integral first derivatives, UseDBF=F ICtDFT=           0.
 Calling FoFJK, ICntrl=      2127 FMM=F ISym2X=1 I1Cent= 0 IOpClX= 0 NMat=1 NMatS=1 NMatT=0.
 FoFJK:  IHMeth= 1 ICntrl=    2127 DoSepK=T KAlg= 0 I1Cent=           0 FoldK=F
 IRaf=         1 NMat=       1 IRICut=       1 DoRegI=T DoRafI=F ISym2E= 1 IDoP0=0 IntGTp=1.
 FoFCou: FMM=F IPFlag=           0 FMFlag=      100000 FMFlg1=         800
         NFxFlg=           0 DoJE=F BraDBF=F KetDBF=F FulRan=T
         wScrn=  0.000000 ICntrl=      2527 IOpCl=  0 I1Cent=           0 NGrid=           0
         NMat0=    1 NMatS0=      1 NMatT0=    0 NMatD0=    1 NMtDS0=    0 NMtDT0=    0
 Petite list used in FoFCou.
 Leave Link  703 at Wed Aug 10 16:52:27 2022, MaxMem=  6442450944 cpu:               3.3 elap:               0.2
 (Enter /mnt/gpfs3_amd/share/apps/amd/gaussian/g16-A.03/g16/l716.exe)
 Dipole        = 2.63403711D-05-8.30942020D-01 4.23614532D-33
 ***** Axes restored to original set *****
 -------------------------------------------------------------------
 Center     Atomic                   Forces (Hartrees/Bohr)
 Number     Number              X              Y              Z
 -------------------------------------------------------------------
      1        8           0.000105956   -0.000525114   -0.000000000
      2        1          -0.000107320    0.000222585    0.000000000
      3        1           0.000001364    0.000302529   -0.000000000
 -------------------------------------------------------------------
 Cartesian Forces:  Max     0.000525114 RMS     0.000220997
 Leave Link  716 at Wed Aug 10 16:52:27 2022, MaxMem=  6442450944 cpu:               0.1 elap:               0.0
 (Enter /mnt/gpfs3_amd/share/apps/amd/gaussian/g16-A.03/g16/l103.exe)

 GradGradGradGradGradGradGradGradGradGradGradGradGradGradGradGradGradGrad
 Berny optimization.
 Using GEDIIS/GDIIS optimizer.
 FormGI is forming the generalized inverse of G from B-inverse, IUseBI=4.
 Internal  Forces:  Max     0.000431623 RMS     0.000272078
 Search for a local minimum.
 Step number   3 out of a maximum of   20
 All quantities printed in internal units (Hartrees-Bohrs-Radians)
 RMS Force = .27208D-03 SwitMx=.10000D-02 MixMth= 2
 Mixed Optimization -- En-DIIS/RFO-DIIS
 Update second derivatives using D2CorX and points    1    2    3
 DE= -9.82D-05 DEPred=-1.07D-04 R= 9.14D-01
 TightC=F SS=  1.41D+00  RLast= 2.35D-02 DXNew= 7.2915D-01 7.0445D-02
 Trust test= 9.14D-01 RLast= 2.35D-02 DXMaxT set to 4.34D-01
 The second derivative matrix:
                          R1        R2        A1
           R1           0.55482
           R2           0.05781   0.57223
           A1           0.02993   0.04170   0.17159
 ITU=  1  1  0
 Use linear search instead of GDIIS.
     Eigenvalues ---    0.16580   0.50512   0.62772
 RFO step:  Lambda=-1.02653710D-06 EMin= 1.65796349D-01
 Quartic linear search produced a step of  0.03635.
 Iteration  1 RMS(Cart)=  0.00139615 RMS(Int)=  0.00000135
 Iteration  2 RMS(Cart)=  0.00000128 RMS(Int)=  0.00000000
 Iteration  3 RMS(Cart)=  0.00000000 RMS(Int)=  0.00000000
 ITry= 1 IFail=0 DXMaxC= 1.41D-03 DCOld= 1.00D+10 DXMaxT= 4.34D-01 DXLimC= 3.00D+00 Rises=F
 ClnCor:  largest displacement from symmetrization is 3.14D-16 for atom     2.
 Variable       Old X    -DE/DX   Delta X   Delta X   Delta X     New X
                                 (Linear)    (Quad)   (Total)
    R1        1.78591  -0.00005   0.00026  -0.00044  -0.00018   1.78573
    R2        1.78612  -0.00018   0.00035  -0.00084  -0.00049   1.78563
    A1        1.83234   0.00043   0.00073   0.00196   0.00269   1.83503
         Item               Value     Threshold  Converged?
 Maximum Force            0.000432     0.000450     YES
 RMS     Force            0.000272     0.000300     YES
 Maximum Displacement     0.001408     0.001800     YES
 RMS     Displacement     0.001396     0.001200     NO 
 Predicted change in Energy=-6.253958D-07
 Lowest energy point so far.  Saving SCF results.
 GradGradGradGradGradGradGradGradGradGradGradGradGradGradGradGradGradGrad

 Leave Link  103 at Wed Aug 10 16:52:27 2022, MaxMem=  6442450944 cpu:               0.1 elap:               0.0
 (Enter /mnt/gpfs3_amd/share/apps/amd/gaussian/g16-A.03/g16/l202.exe)
                          Input orientation:                          
 ---------------------------------------------------------------------
 Center     Atomic      Atomic             Coordinates (Angstroms)
 Number     Number       Type             X           Y           Z
 ---------------------------------------------------------------------
      1          8           0       -0.001725    0.382884   -0.000000
      2          1           0       -0.749499   -0.194868    0.000000
      3          1           0        0.751224   -0.188016   -0.000000
 ---------------------------------------------------------------------
                    Distance matrix (angstroms):
                    1          2          3
     1  O    0.000000
     2  H    0.944967   0.000000
     3  H    0.944912   1.500739   0.000000
 Stoichiometry    H2O
 Framework group  CS[SG(H2O)]
 Deg. of freedom     3
 Full point group                 CS      NOp   2
 RotChk:  IX=0 Diff= 2.11D-04
 Largest Abelian subgroup         CS      NOp   2
 Largest concise Abelian subgroup C1      NOp   1
                         Standard orientation:                         
 ---------------------------------------------------------------------
 Center     Atomic      Atomic             Coordinates (Angstroms)
 Number     Number       Type             X           Y           Z
 ---------------------------------------------------------------------
      1          8           0        0.000000    0.114866    0.000000
      2          1           0        0.750370   -0.459510    0.000000
      3          1           0       -0.750370   -0.459420   -0.000000
 ---------------------------------------------------------------------
 Rotational constants (GHZ):         855.8985333         445.2989695         292.9076747
 Leave Link  202 at Wed Aug 10 16:52:27 2022, MaxMem=  6442450944 cpu:               0.0 elap:               0.1
 (Enter /mnt/gpfs3_amd/share/apps/amd/gaussian/g16-A.03/g16/l301.exe)
 Standard basis: def2SVP (5D, 7F)
 Ernie: Thresh=  0.10000D-02 Tol=  0.10000D-05 Strict=F.
 There are    19 symmetry adapted cartesian basis functions of A'  symmetry.
 There are     6 symmetry adapted cartesian basis functions of A"  symmetry.
 There are    18 symmetry adapted basis functions of A'  symmetry.
 There are     6 symmetry adapted basis functions of A"  symmetry.
    24 basis functions,    39 primitive gaussians,    25 cartesian basis functions
     5 alpha electrons        5 beta electrons
       nuclear repulsion energy         9.3127970637 Hartrees.
 IExCor=    0 DFT=F Ex=HF Corr=None ExCW=0 ScaHFX=  1.000000
 ScaDFX=  1.000000  1.000000  1.000000  1.000000 ScalE2=  1.000000  1.000000
 IRadAn=      5 IRanWt=     -1 IRanGd=            0 ICorTp=0 IEmpDi=  4
 HFx  wShort=  0.000000 wLong=  0.499400 cFull=  1.000000 cShort=  0.000000 cLong=  0.000000
 DFx  wShort=  0.000000 wLong=  0.499400 cFull=  1.000000 cShort=  0.000000 cLong=  0.000000
 NAtoms=    3 NActive=    3 NUniq=    3 SFac= 1.00D+00 NAtFMM=   60 NAOKFM=F Big=F
 Integral buffers will be    131072 words long.
 Raffenetti 1 integral format.
 Two-electron integral symmetry is turned on.
 Leave Link  301 at Wed Aug 10 16:52:28 2022, MaxMem=  6442450944 cpu:               0.4 elap:               0.0
 (Enter /mnt/gpfs3_amd/share/apps/amd/gaussian/g16-A.03/g16/l302.exe)
 NPDir=0 NMtPBC=     1 NCelOv=     1 NCel=       1 NClECP=     1 NCelD=      1
         NCelK=      1 NCelE2=     1 NClLst=     1 CellRange=     0.0.
 One-electron integrals computed using PRISM.
 One-electron integral symmetry used in STVInt
   2 Symmetry operations used in ECPInt.
 ECPInt:  NShTT=      78 NPrTT=     272 LenC2=      79 LenP2D=     271.
 LDataN:  DoStor=T MaxTD1= 4 Len=   56
 NBasis=    24 RedAO= T EigKep=  3.67D-02  NBF=    18     6
 NBsUse=    24 1.00D-06 EigRej= -1.00D+00 NBFU=    18     6
 Leave Link  302 at Wed Aug 10 16:52:28 2022, MaxMem=  6442450944 cpu:               1.1 elap:               0.1
 (Enter /mnt/gpfs3_amd/share/apps/amd/gaussian/g16-A.03/g16/l303.exe)
 DipDrv:  MaxL=1.
 Leave Link  303 at Wed Aug 10 16:52:28 2022, MaxMem=  6442450944 cpu:               0.1 elap:               0.0
 (Enter /mnt/gpfs3_amd/share/apps/amd/gaussian/g16-A.03/g16/l401.exe)
 Initial guess from the checkpoint file:  "/scratch/rdu230/d3tales/high_throughput/runfiles//05XICU/gaussian/mol_opt/opt_mol.chk"
 B after Tr=    -0.000000    0.000000   -0.000000
         Rot=    1.000000   -0.000000    0.000000    0.000061 Ang=   0.01 deg.
 Guess basis will be translated and rotated to current coordinates.
 JPrj=2 DoOrth=T DoCkMO=T.
 Initial guess orbital symmetries:
       Occupied  (A') (A') (A') (A') (A")
       Virtual   (A') (A') (A') (A') (A') (A") (A') (A') (A") (A')
                 (A") (A') (A') (A') (A") (A") (A') (A') (A')
 The electronic state of the initial guess is 1-A'.
 Leave Link  401 at Wed Aug 10 16:52:28 2022, MaxMem=  6442450944 cpu:               0.5 elap:               0.0
 (Enter /mnt/gpfs3_amd/share/apps/amd/gaussian/g16-A.03/g16/l502.exe)
 Keep R1 ints in memory in symmetry-blocked form, NReq=3382530.
 FoFCou: FMM=F IPFlag=           0 FMFlag=           0 FMFlg1=           0
         NFxFlg=           0 DoJE=F BraDBF=F KetDBF=F FulRan=T
         wScrn=  0.000000 ICntrl=       600 IOpCl=  0 I1Cent=           0 NGrid=           0
         NMat0=    1 NMatS0=    300 NMatT0=    0 NMatD0=    1 NMtDS0=    0 NMtDT0=    0
 Petite list used in FoFCou.
 Closed shell SCF:
 Using DIIS extrapolation, IDIIS=  1040.
 NGot=  6442450944 LenX=  6442423464 LenY=  6442422398
 Requested convergence on RMS density matrix=1.00D-08 within1024 cycles.
 Requested convergence on MAX density matrix=1.00D-06.
 Requested convergence on             energy=1.00D-06.
 No special actions if energy rises.

 Cycle   1  Pass 1  IDiag  1:
 E= -75.9613380417983    
 DIIS: error= 1.14D-04 at cycle   1 NSaved=   1.
 NSaved= 1 IEnMin= 1 EnMin= -75.9613380417983     IErMin= 1 ErrMin= 1.14D-04
 ErrMax= 1.14D-04  0.00D+00 EMaxC= 1.00D-01 BMatC= 3.96D-07 BMatP= 3.96D-07
 IDIUse=3 WtCom= 9.99D-01 WtEn= 1.14D-03
 Coeff-Com:  0.100D+01
 Coeff-En:   0.100D+01
 Coeff:      0.100D+01
 Gap=     0.677 Goal=   None    Shift=    0.000
 RMSDP=3.51D-05 MaxDP=2.39D-04              OVMax= 2.06D-04

 Cycle   2  Pass 1  IDiag  1:
 E= -75.9613384629500     Delta-E=       -0.000000421152 Rises=F Damp=F
 DIIS: error= 2.32D-05 at cycle   2 NSaved=   2.
 NSaved= 2 IEnMin= 2 EnMin= -75.9613384629500     IErMin= 2 ErrMin= 2.32D-05
 ErrMax= 2.32D-05  0.00D+00 EMaxC= 1.00D-01 BMatC= 1.84D-08 BMatP= 3.96D-07
 IDIUse=1 WtCom= 1.00D+00 WtEn= 0.00D+00
 Coeff-Com: -0.186D+00 0.119D+01
 Coeff:     -0.186D+00 0.119D+01
 Gap=     0.677 Goal=   None    Shift=    0.000
 RMSDP=9.02D-06 MaxDP=5.84D-05 DE=-4.21D-07 OVMax= 7.10D-05

 Cycle   3  Pass 1  IDiag  1:
 E= -75.9613384883689     Delta-E=       -0.000000025419 Rises=F Damp=F
 DIIS: error= 7.06D-06 at cycle   3 NSaved=   3.
 NSaved= 3 IEnMin= 3 EnMin= -75.9613384883689     IErMin= 3 ErrMin= 7.06D-06
 ErrMax= 7.06D-06  0.00D+00 EMaxC= 1.00D-01 BMatC= 1.16D-09 BMatP= 1.84D-08
 IDIUse=1 WtCom= 1.00D+00 WtEn= 0.00D+00
 Coeff-Com: -0.463D-01 0.187D+00 0.860D+00
 Coeff:     -0.463D-01 0.187D+00 0.860D+00
 Gap=     0.677 Goal=   None    Shift=    0.000
 RMSDP=1.51D-06 MaxDP=1.13D-05 DE=-2.54D-08 OVMax= 1.81D-05

 Cycle   4  Pass 1  IDiag  1:
 E= -75.9613384897178     Delta-E=       -0.000000001349 Rises=F Damp=F
 DIIS: error= 3.00D-06 at cycle   4 NSaved=   4.
 NSaved= 4 IEnMin= 4 EnMin= -75.9613384897178     IErMin= 4 ErrMin= 3.00D-06
 ErrMax= 3.00D-06  0.00D+00 EMaxC= 1.00D-01 BMatC= 1.75D-10 BMatP= 1.16D-09
 IDIUse=1 WtCom= 1.00D+00 WtEn= 0.00D+00
 Coeff-Com:  0.154D-01-0.112D+00 0.136D+00 0.961D+00
 Coeff:      0.154D-01-0.112D+00 0.136D+00 0.961D+00
 Gap=     0.677 Goal=   None    Shift=    0.000
 RMSDP=6.09D-07 MaxDP=5.94D-06 DE=-1.35D-09 OVMax= 7.29D-06

 Cycle   5  Pass 1  IDiag  1:
 E= -75.9613384899423     Delta-E=       -0.000000000225 Rises=F Damp=F
 DIIS: error= 6.29D-07 at cycle   5 NSaved=   5.
 NSaved= 5 IEnMin= 5 EnMin= -75.9613384899423     IErMin= 5 ErrMin= 6.29D-07
 ErrMax= 6.29D-07  0.00D+00 EMaxC= 1.00D-01 BMatC= 6.09D-12 BMatP= 1.75D-10
 IDIUse=1 WtCom= 1.00D+00 WtEn= 0.00D+00
 Coeff-Com: -0.366D-03 0.924D-02-0.578D-01-0.220D+00 0.127D+01
 Coeff:     -0.366D-03 0.924D-02-0.578D-01-0.220D+00 0.127D+01
 Gap=     0.677 Goal=   None    Shift=    0.000
 RMSDP=2.13D-07 MaxDP=1.39D-06 DE=-2.25D-10 OVMax= 3.23D-06

 Cycle   6  Pass 1  IDiag  1:
 E= -75.9613384899601     Delta-E=       -0.000000000018 Rises=F Damp=F
 DIIS: error= 1.08D-07 at cycle   6 NSaved=   6.
 NSaved= 6 IEnMin= 6 EnMin= -75.9613384899601     IErMin= 6 ErrMin= 1.08D-07
 ErrMax= 1.08D-07  0.00D+00 EMaxC= 1.00D-01 BMatC= 2.84D-13 BMatP= 6.09D-12
 IDIUse=1 WtCom= 1.00D+00 WtEn= 0.00D+00
 Coeff-Com: -0.779D-03 0.466D-02 0.435D-02-0.186D-01-0.220D+00 0.123D+01
 Coeff:     -0.779D-03 0.466D-02 0.435D-02-0.186D-01-0.220D+00 0.123D+01
 Gap=     0.677 Goal=   None    Shift=    0.000
 RMSDP=4.68D-08 MaxDP=3.67D-07 DE=-1.78D-11 OVMax= 6.87D-07

 Cycle   7  Pass 1  IDiag  1:
 E= -75.9613384899610     Delta-E=       -0.000000000001 Rises=F Damp=F
 DIIS: error= 1.79D-08 at cycle   7 NSaved=   7.
 NSaved= 7 IEnMin= 7 EnMin= -75.9613384899610     IErMin= 7 ErrMin= 1.79D-08
 ErrMax= 1.79D-08  0.00D+00 EMaxC= 1.00D-01 BMatC= 8.69D-15 BMatP= 2.84D-13
 IDIUse=1 WtCom= 1.00D+00 WtEn= 0.00D+00
 Coeff-Com:  0.226D-03-0.154D-02 0.156D-03 0.122D-01 0.224D-01-0.329D+00
 Coeff-Com:  0.130D+01
 Coeff:      0.226D-03-0.154D-02 0.156D-03 0.122D-01 0.224D-01-0.329D+00
 Coeff:      0.130D+01
 Gap=     0.677 Goal=   None    Shift=    0.000
 RMSDP=6.97D-09 MaxDP=6.47D-08 DE=-9.09D-13 OVMax= 8.49D-08

 SCF Done:  E(RHF) =  -75.9613384900     A.U. after    7 cycles
            NFock=  7  Conv=0.70D-08     -V/T= 2.0019
 KE= 7.581601690482D+01 PE=-1.990684603138D+02 EE= 3.797830785537D+01
 Leave Link  502 at Wed Aug 10 16:52:28 2022, MaxMem=  6442450944 cpu:               2.8 elap:               0.2
 (Enter /mnt/gpfs3_amd/share/apps/amd/gaussian/g16-A.03/g16/l701.exe)
 ... and contract with generalized density number  0.
 Compute integral first derivatives.
   2 Symmetry operations used in ECPInt.
 ECPInt:  NShTT=      78 NPrTT=     272 LenC2=      79 LenP2D=     271.
 LDataN:  DoStor=T MaxTD1= 5 Len=  102
 Leave Link  701 at Wed Aug 10 16:52:28 2022, MaxMem=  6442450944 cpu:               1.3 elap:               0.1
 (Enter /mnt/gpfs3_amd/share/apps/amd/gaussian/g16-A.03/g16/l702.exe)
 L702 exits ... SP integral derivatives will be done elsewhere.
 Leave Link  702 at Wed Aug 10 16:52:28 2022, MaxMem=  6442450944 cpu:               0.1 elap:               0.0
 (Enter /mnt/gpfs3_amd/share/apps/amd/gaussian/g16-A.03/g16/l703.exe)
 Integral derivatives from FoFJK, PRISM(SPDF).
 Compute integral first derivatives, UseDBF=F ICtDFT=           0.
 Calling FoFJK, ICntrl=      2127 FMM=F ISym2X=1 I1Cent= 0 IOpClX= 0 NMat=1 NMatS=1 NMatT=0.
 FoFJK:  IHMeth= 1 ICntrl=    2127 DoSepK=T KAlg= 0 I1Cent=           0 FoldK=F
 IRaf=         1 NMat=       1 IRICut=       1 DoRegI=T DoRafI=F ISym2E= 1 IDoP0=0 IntGTp=1.
 FoFCou: FMM=F IPFlag=           0 FMFlag=      100000 FMFlg1=         800
         NFxFlg=           0 DoJE=F BraDBF=F KetDBF=F FulRan=T
         wScrn=  0.000000 ICntrl=      2527 IOpCl=  0 I1Cent=           0 NGrid=           0
         NMat0=    1 NMatS0=      1 NMatT0=    0 NMatD0=    1 NMtDS0=    0 NMtDT0=    0
 Petite list used in FoFCou.
 Leave Link  703 at Wed Aug 10 16:52:28 2022, MaxMem=  6442450944 cpu:               3.3 elap:               0.2
 (Enter /mnt/gpfs3_amd/share/apps/amd/gaussian/g16-A.03/g16/l716.exe)
 Dipole        =-1.31454195D-05-8.29936647D-01-4.21856027D-33
 ***** Axes restored to original set *****
 -------------------------------------------------------------------
 Center     Atomic                   Forces (Hartrees/Bohr)
 Number     Number              X              Y              Z
 -------------------------------------------------------------------
      1        8          -0.000052176    0.000042569   -0.000000000
      2        1           0.000017511   -0.000001429    0.000000000
      3        1           0.000034665   -0.000041140    0.000000000
 -------------------------------------------------------------------
 Cartesian Forces:  Max     0.000052176 RMS     0.000029321
 Leave Link  716 at Wed Aug 10 16:52:28 2022, MaxMem=  6442450944 cpu:               0.1 elap:               0.0
 (Enter /mnt/gpfs3_amd/share/apps/amd/gaussian/g16-A.03/g16/l103.exe)

 GradGradGradGradGradGradGradGradGradGradGradGradGradGradGradGradGradGrad
 Berny optimization.
 Using GEDIIS/GDIIS optimizer.
 FormGI is forming the generalized inverse of G from B-inverse, IUseBI=4.
 Internal  Forces:  Max     0.000052479 RMS     0.000033513
 Search for a local minimum.
 Step number   4 out of a maximum of   20
 All quantities printed in internal units (Hartrees-Bohrs-Radians)
 RMS Force = .33513D-04 SwitMx=.10000D-02 MixMth= 2
 Mixed Optimization -- En-DIIS/RFO-DIIS
 Swapping is turned off.
 Update second derivatives using D2CorX and points    1    2    3    4
 DE= -5.90D-07 DEPred=-6.25D-07 R= 9.43D-01
 Trust test= 9.43D-01 RLast= 2.74D-03 DXMaxT set to 4.34D-01
 The second derivative matrix:
                          R1        R2        A1
           R1           0.55350
           R2           0.05444   0.58089
           A1           0.03353   0.02283   0.17476
 ITU=  0  1  1  0
     Eigenvalues ---    0.17101   0.51150   0.62665
 En-DIIS/RFO-DIIS/Sim-DIIS IScMMF=       -3 using points:     4    3
 RFO step:  Lambda= 0.00000000D+00.
 NNeg= 0 NGDIIS= 2 SimSw=  2.50D-01 Rises=F DC= -5.90D-07 SmlDif=  1.00D-05
 NRisDI= 0 DoIntr=F SqrtH=F CThrHd= 10.0 CDAdj=  3.0
 RMS Error=  0.9453380701D-04 NUsed= 2 OKEnD=F EnDIS=F
 InvSVX:  RCond= 8.45D-06 Info=           0 Equed=N FErr=  9.50D-16 BErr=  7.54D-17
 DidBck=F Rises=F RFO-DIIS coefs:    0.94807    0.05193
 Iteration  1 RMS(Cart)=  0.00007144 RMS(Int)=  0.00000000
 Iteration  2 RMS(Cart)=  0.00000000 RMS(Int)=  0.00000000
 ITry= 1 IFail=0 DXMaxC= 7.54D-05 DCOld= 1.00D+10 DXMaxT= 4.34D-01 DXLimC= 3.00D+00 Rises=F
 ClnCor:  largest displacement from symmetrization is 3.14D-16 for atom     2.
 Variable       Old X    -DE/DX   Delta X   Delta X   Delta X     New X
                                 (Linear)    (Quad)   (Total)
    R1        1.78573  -0.00001   0.00001  -0.00003  -0.00003   1.78570
    R2        1.78563   0.00005   0.00003   0.00007   0.00010   1.78572
    A1        1.83503  -0.00002  -0.00014   0.00001  -0.00013   1.83490
         Item               Value     Threshold  Converged?
 Maximum Force            0.000052     0.000450     YES
 RMS     Force            0.000034     0.000300     YES
 Maximum Displacement     0.000075     0.001800     YES
 RMS     Displacement     0.000071     0.001200     YES
 Predicted change in Energy=-4.091791D-09
 Optimization completed.
    -- Stationary point found.
                           ----------------------------
                           !   Optimized Parameters   !
                           ! (Angstroms and Degrees)  !
 --------------------------                            --------------------------
 ! Name  Definition              Value          Derivative Info.                !
 --------------------------------------------------------------------------------
 ! R1    R(1,2)                  0.945          -DE/DX =    0.0                 !
 ! R2    R(1,3)                  0.9449         -DE/DX =    0.0001              !
 ! A1    A(2,1,3)              105.1392         -DE/DX =    0.0                 !
 --------------------------------------------------------------------------------
 Lowest energy point so far.  Saving SCF results.
 Largest change from initial coordinates is atom    3       0.050 Angstoms.
 GradGradGradGradGradGradGradGradGradGradGradGradGradGradGradGradGradGrad

 Leave Link  103 at Wed Aug 10 16:52:28 2022, MaxMem=  6442450944 cpu:               0.1 elap:               0.0
 (Enter /mnt/gpfs3_amd/share/apps/amd/gaussian/g16-A.03/g16/l202.exe)
                          Input orientation:                          
 ---------------------------------------------------------------------
 Center     Atomic      Atomic             Coordinates (Angstroms)
 Number     Number       Type             X           Y           Z
 ---------------------------------------------------------------------
      1          8           0       -0.001725    0.382884   -0.000000
      2          1           0       -0.749499   -0.194868   -0.000000
      3          1           0        0.751224   -0.188016    0.000000
 ---------------------------------------------------------------------
                    Distance matrix (angstroms):
                    1          2          3
     1  O    0.000000
     2  H    0.944967   0.000000
     3  H    0.944912   1.500739   0.000000
 Stoichiometry    H2O
 Framework group  CS[SG(H2O)]
 Deg. of freedom     3
 Full point group                 CS      NOp   2
 RotChk:  IX=0 Diff= 1.59D-16
 Largest Abelian subgroup         CS      NOp   2
 Largest concise Abelian subgroup C1      NOp   1
                         Standard orientation:                         
 ---------------------------------------------------------------------
 Center     Atomic      Atomic             Coordinates (Angstroms)
 Number     Number       Type             X           Y           Z
 ---------------------------------------------------------------------
      1          8           0        0.000000    0.114866    0.000000
      2          1           0        0.750370   -0.459510    0.000000
      3          1           0       -0.750370   -0.459420   -0.000000
 ---------------------------------------------------------------------
 Rotational constants (GHZ):         855.8985333         445.2989695         292.9076747
 Leave Link  202 at Wed Aug 10 16:52:28 2022, MaxMem=  6442450944 cpu:               0.0 elap:               0.0
 (Enter /mnt/gpfs3_amd/share/apps/amd/gaussian/g16-A.03/g16/l601.exe)
 Copying SCF densities to generalized density rwf, IOpCl= 0 IROHF=0.

 **********************************************************************

            Population analysis using the SCF density.

 **********************************************************************

 Orbital symmetries:
       Occupied  (A') (A') (A') (A') (A")
       Virtual   (A') (A') (A') (A') (A') (A") (A') (A') (A") (A')
                 (A") (A') (A') (A') (A") (A") (A') (A') (A')
 The electronic state is 1-A'.
 Alpha  occ. eigenvalues --  -20.54342  -1.32488  -0.71156  -0.56922  -0.49884
 Alpha virt. eigenvalues --    0.17823   0.25710   0.80653   0.87947   1.18380
 Alpha virt. eigenvalues --    1.20186   1.26787   1.33887   1.59840   1.67005
 Alpha virt. eigenvalues --    1.81502   2.07064   2.59727   2.63052   3.33544
 Alpha virt. eigenvalues --    3.40147   3.58660   3.92481   4.24382
          Condensed to atoms (all electrons):
               1          2          3
     1  O    7.635366   0.349520   0.349533
     2  H    0.349520   0.510625  -0.027368
     3  H    0.349533  -0.027368   0.510638
 Mulliken charges:
               1
     1  O   -0.334419
     2  H    0.167223
     3  H    0.167196
 Sum of Mulliken charges =  -0.00000
 Mulliken charges with hydrogens summed into heavy atoms:
               1
     1  O   -0.000000
 Electronic spatial extent (au):  <R**2>=             18.6213
 Charge=             -0.0000 electrons
 Dipole moment (field-independent basis, Debye):
    X=             -0.0000    Y=             -2.1095    Z=              0.0000  Tot=              2.1095
 Quadrupole moment (field-independent basis, Debye-Ang):
   XX=             -4.1471   YY=             -5.9425   ZZ=             -7.0127
   XY=             -0.0001   XZ=             -0.0000   YZ=             -0.0000
 Traceless Quadrupole moment (field-independent basis, Debye-Ang):
   XX=              1.5537   YY=             -0.2417   ZZ=             -1.3120
   XY=             -0.0001   XZ=             -0.0000   YZ=             -0.0000
 Octapole moment (field-independent basis, Debye-Ang**2):
  XXX=             -0.0001  YYY=             -1.2774  ZZZ=              0.0000  XYY=              0.0001
  XXY=             -1.2593  XXZ=              0.0000  XZZ=             -0.0000  YZZ=             -0.3394
  YYZ=              0.0000  XYZ=             -0.0000
 Hexadecapole moment (field-independent basis, Debye-Ang**3):
 XXXX=             -5.4477 YYYY=             -5.8441 ZZZZ=             -4.8200 XXXY=              0.0000
 XXXZ=             -0.0000 YYYX=              0.0000 YYYZ=             -0.0000 ZZZX=             -0.0000
 ZZZY=             -0.0000 XXYY=             -1.5507 XXZZ=             -1.9891 YYZZ=             -1.8293
 XXYZ=             -0.0000 YYXZ=             -0.0000 ZZXY=              0.0000
 N-N= 9.312797063668D+00 E-N=-1.990684603595D+02  KE= 7.581601690482D+01
 Symmetry A'   KE= 7.123907827274D+01
 Symmetry A"   KE= 4.576938632075D+00
 No NMR shielding tensors so no spin-rotation constants.
 Leave Link  601 at Wed Aug 10 16:52:28 2022, MaxMem=  6442450944 cpu:               1.1 elap:               0.1
 (Enter /mnt/gpfs3_amd/share/apps/amd/gaussian/g16-A.03/g16/l9999.exe)

 Test job not archived.
 1\1\GINC-MCC-LOGIN002\FOpt\RHF\def2SVP\H2O1\RDU230\10-Aug-2022\0\\#P h
 f/Def2SVP iop(3/107=0499400000, 3/108=0499400000) opt scf(maxcyc=1024)
 \\H2 O1\\0,1\O,-0.0017254509,0.3828837403,0.\H,-0.749498972,-0.1948680
 986,0.\H,0.7512244229,-0.1880156417,0.\\Version=AM64L-G16RevA.03\State
 =1-A'\HF=-75.9613385\RMSD=6.966e-09\RMSF=2.932e-05\Dipole=0.0037532,-0
 .8299282,0.\Quadrupole=1.1550847,-0.1796662,-0.9754185,0.006121,0.,0.\
 PG=CS [SG(H2O1)]\\@


 LAWS OF PROGRAMMING DEFINITION:  A WORKING PROGRAM
                                  IS ONE THAT HAS
                                  ONLY UNOBSERVED
                                  BUGS.
 Job cpu time:       0 days  0 hours  1 minutes 11.3 seconds.
 Elapsed time:       0 days  0 hours  0 minutes  5.2 seconds.
 File lengths (MBytes):  RWF=    136 Int=      0 D2E=      0 Chk=     16 Scr=     16
 Normal termination of Gaussian 16 at Wed Aug 10 16:52:29 2022.
