 Entering Gaussian System, Link 0=/mnt/gpfs3_amd/share/apps/amd/gaussian/g16-A.03/g16/g16
 Input=/scratch/rdu230/d3tales/high_throughput/runfiles//05XICU/gaussian/tddft/energy/singlet_triplet_anion1.com
 Output=/scratch/rdu230/d3tales/high_throughput/runfiles//05XICU/gaussian/tddft/energy/singlet_triplet_anion1.log
 Initial command:
 /mnt/gpfs3_amd/share/apps/amd/gaussian/g16-A.03/g16/l1.exe "/scratch/rdu230/d3tales/high_throughput/runfiles/05XICU/gaussian/tddft/energy/Gau-66451.inp" -scrdir="/scratch/rdu230/d3tales/high_throughput/runfiles/05XICU/gaussian/tddft/energy/"
 Entering Link 1 = /mnt/gpfs3_amd/share/apps/amd/gaussian/g16-A.03/g16/l1.exe PID=     66452.
  
 Copyright (c) 1988,1990,1992,1993,1995,1998,2003,2009,2016,
            Gaussian, Inc.  All Rights Reserved.
  
 This is part of the Gaussian(R) 16 program.  It is based on
 the Gaussian(R) 09 system (copyright 2009, Gaussian, Inc.),
 the Gaussian(R) 03 system (copyright 2003, Gaussian, Inc.),
 the Gaussian(R) 98 system (copyright 1998, Gaussian, Inc.),
 the Gaussian(R) 94 system (copyright 1995, Gaussian, Inc.),
 the Gaussian 92(TM) system (copyright 1992, Gaussian, Inc.),
 the Gaussian 90(TM) system (copyright 1990, Gaussian, Inc.),
 the Gaussian 88(TM) system (copyright 1988, Gaussian, Inc.),
 the Gaussian 86(TM) system (copyright 1986, Carnegie Mellon
 University), and the Gaussian 82(TM) system (copyright 1983,
 Carnegie Mellon University). Gaussian is a federally registered
 trademark of Gaussian, Inc.
  
 This software contains proprietary and confidential information,
 including trade secrets, belonging to Gaussian, Inc.
  
 This software is provided under written license and may be
 used, copied, transmitted, or stored only in accord with that
 written license.
  
 The following legend is applicable only to US Government
 contracts under FAR:
  
                    RESTRICTED RIGHTS LEGEND
  
 Use, reproduction and disclosure by the US Government is
 subject to restrictions as set forth in subparagraphs (a)
 and (c) of the Commercial Computer Software - Restricted
 Rights clause in FAR 52.227-19.
  
 Gaussian, Inc.
 340 Quinnipiac St., Bldg. 40, Wallingford CT 06492
  
  
 ---------------------------------------------------------------
 Warning -- This program may not be used in any manner that
 competes with the business of Gaussian, Inc. or will provide
 assistance to any competitor of Gaussian, Inc.  The licensee
 of this program is prohibited from giving any competitor of
 Gaussian, Inc. access to this program.  By using this program,
 the user acknowledges that Gaussian, Inc. is engaged in the
 business of creating and licensing software in the field of
 computational chemistry and represents and warrants to the
 licensee that it is not a competitor of Gaussian, Inc. and that
 it will not use this program in any manner prohibited above.
 ---------------------------------------------------------------
  

 Cite this work as:
 Gaussian 16, Revision A.03,
 M. J. Frisch, G. W. Trucks, H. B. Schlegel, G. E. Scuseria, 
 M. A. Robb, J. R. Cheeseman, G. Scalmani, V. Barone, 
 G. A. Petersson, H. Nakatsuji, X. Li, M. Caricato, A. V. Marenich, 
 J. Bloino, B. G. Janesko, R. Gomperts, B. Mennucci, H. P. Hratchian, 
 J. V. Ortiz, A. F. Izmaylov, J. L. Sonnenberg, D. Williams-Young, 
 F. Ding, F. Lipparini, F. Egidi, J. Goings, B. Peng, A. Petrone, 
 T. Henderson, D. Ranasinghe, V. G. Zakrzewski, J. Gao, N. Rega, 
 G. Zheng, W. Liang, M. Hada, M. Ehara, K. Toyota, R. Fukuda, 
 J. Hasegawa, M. Ishida, T. Nakajima, Y. Honda, O. Kitao, H. Nakai, 
 T. Vreven, K. Throssell, J. A. Montgomery, Jr., J. E. Peralta, 
 F. Ogliaro, M. J. Bearpark, J. J. Heyd, E. N. Brothers, K. N. Kudin, 
 V. N. Staroverov, T. A. Keith, R. Kobayashi, J. Normand, 
 K. Raghavachari, A. P. Rendell, J. C. Burant, S. S. Iyengar, 
 J. Tomasi, M. Cossi, J. M. Millam, M. Klene, C. Adamo, R. Cammi, 
 J. W. Ochterski, R. L. Martin, K. Morokuma, O. Farkas, 
 J. B. Foresman, and D. J. Fox, Gaussian, Inc., Wallingford CT, 2016.
 
 ******************************************
 Gaussian 16:  AM64L-G16RevA.03 25-Dec-2016
                 1-Sep-2022 
 ******************************************
 %chk=/scratch/rdu230/d3tales/high_throughput/runfiles//05XICU/gaussian/tddft/ene
 rgy/singlet_triplet_anion1.chk
 %mem=48GB
 %nprocshared=16
 Will use up to   16 processors via shared memory.
 ----------------------------------------------------------------------
 #P LC-wHPBE/Def2SVP iop(3/107=0499400000, 3/108=0499400000) td=(50-50,
 nstates=15)
 ----------------------------------------------------------------------
 1/38=1,172=1/1;
 2/12=2,17=6,18=5,40=1/2;
 3/5=43,7=101,11=9,25=1,30=1,74=-71,107=499400000,108=499400000/1,2,3,8;
 4//1;
 5/5=2,38=5/2;
 8/6=1,10=1,108=15/1;
 9/41=15,42=1,48=2,70=2/14;
 6/7=2,8=2,9=2,10=2/1;
 99/5=1,9=1/99;
 Leave Link    1 at Thu Sep  1 11:56:44 2022, MaxMem=  6442450944 cpu:               4.4 elap:               0.3
 (Enter /mnt/gpfs3_amd/share/apps/amd/gaussian/g16-A.03/g16/l101.exe)
 -----
 H2 O1
 -----
 Symbolic Z-matrix:
 Charge = -1 Multiplicity = 2
 O                     0.        0.13819   0. 
 H                     0.75544  -0.54934   0. 
 H                    -0.75544  -0.55615   0. 
 
 ITRead=  0  0  0
 MicOpt= -1 -1 -1
 NAtoms=      3 NQM=        3 NQMF=       0 NMMI=      0 NMMIF=      0
                NMic=       0 NMicF=      0.
                    Isotopes and Nuclear Properties:
 (Nuclear quadrupole moments (NQMom) in fm**2, nuclear magnetic moments (NMagM)
  in nuclear magnetons)

  Atom         1           2           3
 IAtWgt=          16           1           1
 AtmWgt=  15.9949146   1.0078250   1.0078250
 NucSpn=           0           1           1
 AtZEff=  -0.0000000  -0.0000000  -0.0000000
 NQMom=    0.0000000   0.0000000   0.0000000
 NMagM=    0.0000000   2.7928460   2.7928460
 AtZNuc=   8.0000000   1.0000000   1.0000000
 Leave Link  101 at Thu Sep  1 11:56:44 2022, MaxMem=  6442450944 cpu:               0.5 elap:               0.0
 (Enter /mnt/gpfs3_amd/share/apps/amd/gaussian/g16-A.03/g16/l202.exe)
                          Input orientation:                          
 ---------------------------------------------------------------------
 Center     Atomic      Atomic             Coordinates (Angstroms)
 Number     Number       Type             X           Y           Z
 ---------------------------------------------------------------------
      1          8           0        0.000000    0.138187    0.000000
      2          1           0        0.755435   -0.549339    0.000000
      3          1           0       -0.755435   -0.556153    0.000000
 ---------------------------------------------------------------------
                    Distance matrix (angstroms):
                    1          2          3
     1  O    0.000000
     2  H    1.021457   0.000000
     3  H    1.026056   1.510885   0.000000
 Stoichiometry    H2O(1-,2)
 Framework group  CS[SG(H2O)]
 Deg. of freedom     3
 Full point group                 CS      NOp   2
 Largest Abelian subgroup         CS      NOp   2
 Largest concise Abelian subgroup C1      NOp   1
                         Standard orientation:                         
 ---------------------------------------------------------------------
 Center     Atomic      Atomic             Coordinates (Angstroms)
 Number     Number       Type             X           Y           Z
 ---------------------------------------------------------------------
      1          8           0        0.000000    0.138187    0.000000
      2          1           0        0.755435   -0.549339    0.000000
      3          1           0       -0.755435   -0.556153    0.000000
 ---------------------------------------------------------------------
 Rotational constants (GHZ):         591.4389775         439.3124455         252.0748434
 Leave Link  202 at Thu Sep  1 11:56:44 2022, MaxMem=  6442450944 cpu:               0.0 elap:               0.0
 (Enter /mnt/gpfs3_amd/share/apps/amd/gaussian/g16-A.03/g16/l301.exe)
 Standard basis: def2SVP (5D, 7F)
 Ernie: Thresh=  0.10000D-02 Tol=  0.10000D-05 Strict=F.
 There are    19 symmetry adapted cartesian basis functions of A'  symmetry.
 There are     6 symmetry adapted cartesian basis functions of A"  symmetry.
 There are    18 symmetry adapted basis functions of A'  symmetry.
 There are     6 symmetry adapted basis functions of A"  symmetry.
    24 basis functions,    39 primitive gaussians,    25 cartesian basis functions
     6 alpha electrons        5 beta electrons
       nuclear repulsion energy         8.6206477714 Hartrees.
 IExCor=33909 DFT=T Ex+Corr=LC-wHPBE ExCW=0 ScaHFX=  1.000000
 ScaDFX=  1.000000  1.000000  1.000000  1.000000 ScalE2=  1.000000  1.000000
 IRadAn=      5 IRanWt=     -1 IRanGd=            0 ICorTp=0 IEmpDi=  4
 HFx  wShort=  0.000000 wLong=  0.499400 cFull=  0.000000 cShort=  0.000000 cLong=  1.000000
 DFx  wShort=  0.000000 wLong=  0.499400 cFull=  0.000000 cShort=  1.000000 cLong=  0.000000
 NAtoms=    3 NActive=    3 NUniq=    3 SFac= 1.00D+00 NAtFMM=   60 NAOKFM=F Big=F
 Integral buffers will be    131072 words long.
 Raffenetti 2 integral format.
 Two-electron integral symmetry is turned on.
 Leave Link  301 at Thu Sep  1 11:56:46 2022, MaxMem=  6442450944 cpu:              32.6 elap:               2.2
 (Enter /mnt/gpfs3_amd/share/apps/amd/gaussian/g16-A.03/g16/l302.exe)
 NPDir=0 NMtPBC=     1 NCelOv=     1 NCel=       1 NClECP=     1 NCelD=      1
         NCelK=      1 NCelE2=     1 NClLst=     1 CellRange=     0.0.
 One-electron integrals computed using PRISM.
 One-electron integral symmetry used in STVInt
   2 Symmetry operations used in ECPInt.
 ECPInt:  NShTT=      78 NPrTT=     272 LenC2=      79 LenP2D=     271.
 LDataN:  DoStor=T MaxTD1= 4 Len=   56
 NBasis=    24 RedAO= T EigKep=  4.07D-02  NBF=    18     6
 NBsUse=    24 1.00D-06 EigRej= -1.00D+00 NBFU=    18     6
 Precomputing XC quadrature grid using
 IXCGrd= 4 IRadAn=           5 IRanWt=          -1 IRanGd=           0 AccXCQ= 0.00D+00.
 Generated NRdTot=       0 NPtTot=           0 NUsed=           0 NTot=          32
 NSgBfM=    25    25    25    25    25 MxSgAt=     3 MxSgA2=     3.
 Leave Link  302 at Thu Sep  1 11:56:46 2022, MaxMem=  6442450944 cpu:               1.4 elap:               0.1
 (Enter /mnt/gpfs3_amd/share/apps/amd/gaussian/g16-A.03/g16/l303.exe)
 DipDrv:  MaxL=1.
 Leave Link  303 at Thu Sep  1 11:56:46 2022, MaxMem=  6442450944 cpu:               0.1 elap:               0.0
 (Enter /mnt/gpfs3_amd/share/apps/amd/gaussian/g16-A.03/g16/l308.exe)
 Leave Link  308 at Thu Sep  1 11:56:46 2022, MaxMem=  6442450944 cpu:               0.1 elap:               0.0
 (Enter /mnt/gpfs3_amd/share/apps/amd/gaussian/g16-A.03/g16/l401.exe)
 ExpMin= 1.22D-01 ExpMax= 2.27D+03 ExpMxC= 3.41D+02 IAcc=3 IRadAn=         5 AccDes= 0.00D+00
 Harris functional with IExCor=33909 and IRadAn=       5 diagonalized for initial guess.
 HarFok:  IExCor=33909 AccDes= 0.00D+00 IRadAn=         5 IDoV= 1 UseB2=F ITyADJ=14
 ICtDFT=  3500011 ScaDFX=  1.000000  1.000000  1.000000  1.000000
 FoFCou: FMM=F IPFlag=           0 FMFlag=      100000 FMFlg1=           0
         NFxFlg=           0 DoJE=T BraDBF=F KetDBF=T FulRan=T
         wScrn=  0.000000 ICntrl=       500 IOpCl=  0 I1Cent=   200000004 NGrid=           0
         NMat0=    1 NMatS0=      1 NMatT0=    0 NMatD0=    1 NMtDS0=    0 NMtDT0=    0
 Petite list used in FoFCou.
 Harris En= -73.7798549040290    
 JPrj=0 DoOrth=F DoCkMO=F.
 Initial guess orbital symmetries:
 Alpha Orbitals:
       Occupied  (A') (A') (A') (A') (A") (A')
       Virtual   (A') (A') (A') (A') (A") (A') (A') (A') (A") (A")
                 (A') (A') (A') (A") (A") (A') (A') (A')
 Beta  Orbitals:
       Occupied  (A') (A') (A') (A') (A")
       Virtual   (A') (A') (A') (A') (A') (A") (A') (A') (A') (A")
                 (A") (A') (A') (A') (A") (A") (A') (A') (A')
 The electronic state of the initial guess is 2-A'.
 Initial guess <Sx>= 0.0000 <Sy>= 0.0000 <Sz>= 0.5000 <S**2>= 0.7500 S= 0.5000
 Leave Link  401 at Thu Sep  1 11:56:46 2022, MaxMem=  6442450944 cpu:               2.2 elap:               0.1
 (Enter /mnt/gpfs3_amd/share/apps/amd/gaussian/g16-A.03/g16/l502.exe)
 Keep R1 and R2 ints in memory in symmetry-blocked form, NReq=13884302.
 FoFCou: FMM=F IPFlag=           0 FMFlag=           0 FMFlg1=           0
         NFxFlg=           0 DoJE=F BraDBF=F KetDBF=F FulRan=T
         wScrn=  0.000000 ICntrl=       600 IOpCl=  0 I1Cent=           0 NGrid=           0
         NMat0=    1 NMatS0=    300 NMatT0=    0 NMatD0=    1 NMtDS0=    0 NMtDT0=    0
 Petite list used in FoFCou.
 UHF open shell SCF:
 Using DIIS extrapolation, IDIIS=  1040.
 NGot=  6442450944 LenX=  6442399050 LenY=  6442397984
 Requested convergence on RMS density matrix=1.00D-08 within 128 cycles.
 Requested convergence on MAX density matrix=1.00D-06.
 Requested convergence on             energy=1.00D-06.
 No special actions if energy rises.
 Integral accuracy reduced to 1.0D-05 until final iterations.

 Cycle   1  Pass 0  IDiag  1:
 E= -76.1475646688123    
 DIIS: error= 3.55D-02 at cycle   1 NSaved=   1.
 NSaved= 1 IEnMin= 1 EnMin= -76.1475646688123     IErMin= 1 ErrMin= 3.55D-02
 ErrMax= 3.55D-02  0.00D+00 EMaxC= 1.00D-01 BMatC= 1.84D-01 BMatP= 1.84D-01
 IDIUse=3 WtCom= 6.45D-01 WtEn= 3.55D-01
 Coeff-Com:  0.100D+01
 Coeff-En:   0.100D+01
 Coeff:      0.100D+01
 Gap=     0.310 Goal=   None    Shift=    0.000
 Gap=     0.451 Goal=   None    Shift=    0.000
 GapD=    0.310 DampG=1.000 DampE=0.500 DampFc=0.5000 IDamp=-1.
 Damping current iteration by 5.00D-01
 RMSDP=1.76D-02 MaxDP=2.80D-01              OVMax= 1.32D-01

 Cycle   2  Pass 0  IDiag  1:
 E= -76.1661249406859     Delta-E=       -0.018560271874 Rises=F Damp=T
 DIIS: error= 7.09D-03 at cycle   2 NSaved=   2.
 NSaved= 2 IEnMin= 2 EnMin= -76.1661249406859     IErMin= 2 ErrMin= 7.09D-03
 ErrMax= 7.09D-03  0.00D+00 EMaxC= 1.00D-01 BMatC= 3.00D-03 BMatP= 1.84D-01
 IDIUse=3 WtCom= 9.29D-01 WtEn= 7.09D-02
 Coeff-Com: -0.147D-01 0.101D+01
 Coeff-En:   0.000D+00 0.100D+01
 Coeff:     -0.137D-01 0.101D+01
 Gap=     0.303 Goal=   None    Shift=    0.000
 Gap=     0.541 Goal=   None    Shift=    0.000
 RMSDP=2.63D-03 MaxDP=3.75D-02 DE=-1.86D-02 OVMax= 4.75D-02

 Cycle   3  Pass 0  IDiag  1:
 E= -76.1843032056474     Delta-E=       -0.018178264962 Rises=F Damp=F
 DIIS: error= 1.83D-03 at cycle   3 NSaved=   3.
 NSaved= 3 IEnMin= 3 EnMin= -76.1843032056474     IErMin= 3 ErrMin= 1.83D-03
 ErrMax= 1.83D-03  0.00D+00 EMaxC= 1.00D-01 BMatC= 2.44D-04 BMatP= 3.00D-03
 IDIUse=3 WtCom= 9.82D-01 WtEn= 1.83D-02
 Coeff-Com:  0.239D-01-0.245D+00 0.122D+01
 Coeff-En:   0.000D+00 0.000D+00 0.100D+01
 Coeff:      0.234D-01-0.240D+00 0.122D+01
 Gap=     0.302 Goal=   None    Shift=    0.000
 Gap=     0.548 Goal=   None    Shift=    0.000
 RMSDP=6.94D-04 MaxDP=7.31D-03 DE=-1.82D-02 OVMax= 8.12D-03

 Cycle   4  Pass 0  IDiag  1:
 E= -76.1844208056875     Delta-E=       -0.000117600040 Rises=F Damp=F
 DIIS: error= 4.48D-04 at cycle   4 NSaved=   4.
 NSaved= 4 IEnMin= 4 EnMin= -76.1844208056875     IErMin= 4 ErrMin= 4.48D-04
 ErrMax= 4.48D-04  0.00D+00 EMaxC= 1.00D-01 BMatC= 1.02D-05 BMatP= 2.44D-04
 IDIUse=3 WtCom= 9.96D-01 WtEn= 4.48D-03
 Coeff-Com: -0.325D-02 0.240D-01-0.271D+00 0.125D+01
 Coeff-En:   0.000D+00 0.000D+00 0.000D+00 0.100D+01
 Coeff:     -0.323D-02 0.239D-01-0.270D+00 0.125D+01
 Gap=     0.302 Goal=   None    Shift=    0.000
 Gap=     0.548 Goal=   None    Shift=    0.000
 RMSDP=1.81D-04 MaxDP=1.92D-03 DE=-1.18D-04 OVMax= 2.72D-03

 Cycle   5  Pass 0  IDiag  1:
 E= -76.1844291132612     Delta-E=       -0.000008307574 Rises=F Damp=F
 DIIS: error= 1.60D-04 at cycle   5 NSaved=   5.
 NSaved= 5 IEnMin= 5 EnMin= -76.1844291132612     IErMin= 5 ErrMin= 1.60D-04
 ErrMax= 1.60D-04  0.00D+00 EMaxC= 1.00D-01 BMatC= 9.57D-07 BMatP= 1.02D-05
 IDIUse=3 WtCom= 9.98D-01 WtEn= 1.60D-03
 Coeff-Com:  0.515D-04 0.901D-04 0.503D-01-0.425D+00 0.137D+01
 Coeff-En:   0.000D+00 0.000D+00 0.000D+00 0.000D+00 0.100D+01
 Coeff:      0.514D-04 0.899D-04 0.502D-01-0.424D+00 0.137D+01
 Gap=     0.302 Goal=   None    Shift=    0.000
 Gap=     0.548 Goal=   None    Shift=    0.000
 RMSDP=7.47D-05 MaxDP=7.52D-04 DE=-8.31D-06 OVMax= 8.72D-04

 Cycle   6  Pass 0  IDiag  1:
 E= -76.1844300969590     Delta-E=       -0.000000983698 Rises=F Damp=F
 DIIS: error= 6.24D-05 at cycle   6 NSaved=   6.
 NSaved= 6 IEnMin= 6 EnMin= -76.1844300969590     IErMin= 6 ErrMin= 6.24D-05
 ErrMax= 6.24D-05  0.00D+00 EMaxC= 1.00D-01 BMatC= 1.41D-07 BMatP= 9.57D-07
 IDIUse=1 WtCom= 1.00D+00 WtEn= 0.00D+00
 Coeff-Com:  0.569D-03-0.409D-02 0.303D-01-0.716D-01-0.340D+00 0.138D+01
 Coeff:      0.569D-03-0.409D-02 0.303D-01-0.716D-01-0.340D+00 0.138D+01
 Gap=     0.303 Goal=   None    Shift=    0.000
 Gap=     0.548 Goal=   None    Shift=    0.000
 RMSDP=3.93D-05 MaxDP=5.18D-04 DE=-9.84D-07 OVMax= 3.27D-04

 Cycle   7  Pass 0  IDiag  1:
 E= -76.1844302498700     Delta-E=       -0.000000152911 Rises=F Damp=F
 DIIS: error= 1.31D-05 at cycle   7 NSaved=   7.
 NSaved= 7 IEnMin= 7 EnMin= -76.1844302498700     IErMin= 7 ErrMin= 1.31D-05
 ErrMax= 1.31D-05  0.00D+00 EMaxC= 1.00D-01 BMatC= 1.22D-08 BMatP= 1.41D-07
 IDIUse=1 WtCom= 1.00D+00 WtEn= 0.00D+00
 Coeff-Com: -0.162D-03 0.138D-02-0.151D-01 0.705D-01-0.492D-01-0.381D+00
 Coeff-Com:  0.137D+01
 Coeff:     -0.162D-03 0.138D-02-0.151D-01 0.705D-01-0.492D-01-0.381D+00
 Coeff:      0.137D+01
 Gap=     0.303 Goal=   None    Shift=    0.000
 Gap=     0.548 Goal=   None    Shift=    0.000
 RMSDP=2.28D-05 MaxDP=3.77D-04 DE=-1.53D-07 OVMax= 1.71D-04

 Cycle   8  Pass 0  IDiag  1:
 E= -76.1844302683669     Delta-E=       -0.000000018497 Rises=F Damp=F
 DIIS: error= 5.27D-06 at cycle   8 NSaved=   8.
 NSaved= 8 IEnMin= 8 EnMin= -76.1844302683669     IErMin= 8 ErrMin= 5.27D-06
 ErrMax= 5.27D-06  0.00D+00 EMaxC= 1.00D-01 BMatC= 2.23D-09 BMatP= 1.22D-08
 IDIUse=1 WtCom= 1.00D+00 WtEn= 0.00D+00
 Coeff-Com:  0.312D-04-0.456D-03 0.627D-02-0.334D-01 0.538D-01 0.948D-01
 Coeff-Com: -0.728D+00 0.161D+01
 Coeff:      0.312D-04-0.456D-03 0.627D-02-0.334D-01 0.538D-01 0.948D-01
 Coeff:     -0.728D+00 0.161D+01
 Gap=     0.303 Goal=   None    Shift=    0.000
 Gap=     0.548 Goal=   None    Shift=    0.000
 RMSDP=1.81D-05 MaxDP=3.07D-04 DE=-1.85D-08 OVMax= 1.38D-04

 Cycle   9  Pass 0  IDiag  1:
 E= -76.1844302750957     Delta-E=       -0.000000006729 Rises=F Damp=F
 DIIS: error= 3.66D-06 at cycle   9 NSaved=   9.
 NSaved= 9 IEnMin= 9 EnMin= -76.1844302750957     IErMin= 9 ErrMin= 3.66D-06
 ErrMax= 3.66D-06  0.00D+00 EMaxC= 1.00D-01 BMatC= 8.70D-10 BMatP= 2.23D-09
 IDIUse=1 WtCom= 1.00D+00 WtEn= 0.00D+00
 Coeff-Com: -0.202D-04 0.475D-03-0.683D-02 0.365D-01-0.622D-01-0.976D-01
 Coeff-Com:  0.860D+00-0.245D+01 0.272D+01
 Coeff:     -0.202D-04 0.475D-03-0.683D-02 0.365D-01-0.622D-01-0.976D-01
 Coeff:      0.860D+00-0.245D+01 0.272D+01
 Gap=     0.303 Goal=   None    Shift=    0.000
 Gap=     0.548 Goal=   None    Shift=    0.000
 RMSDP=2.33D-05 MaxDP=3.83D-04 DE=-6.73D-09 OVMax= 1.78D-04

 Cycle  10  Pass 0  IDiag  1:
 E= -76.1844302799446     Delta-E=       -0.000000004849 Rises=F Damp=F
 DIIS: error= 1.60D-06 at cycle  10 NSaved=  10.
 NSaved=10 IEnMin=10 EnMin= -76.1844302799446     IErMin=10 ErrMin= 1.60D-06
 ErrMax= 1.60D-06  0.00D+00 EMaxC= 1.00D-01 BMatC= 2.24D-10 BMatP= 8.70D-10
 IDIUse=1 WtCom= 1.00D+00 WtEn= 0.00D+00
 Coeff-Com: -0.192D-04 0.211D-03-0.282D-02 0.143D-01-0.193D-01-0.514D-01
 Coeff-Com:  0.314D+00-0.642D+00-0.114D+00 0.150D+01
 Coeff:     -0.192D-04 0.211D-03-0.282D-02 0.143D-01-0.193D-01-0.514D-01
 Coeff:      0.314D+00-0.642D+00-0.114D+00 0.150D+01
 Gap=     0.303 Goal=   None    Shift=    0.000
 Gap=     0.548 Goal=   None    Shift=    0.000
 RMSDP=1.53D-05 MaxDP=2.50D-04 DE=-4.85D-09 OVMax= 1.17D-04

 Cycle  11  Pass 0  IDiag  1:
 E= -76.1844302811099     Delta-E=       -0.000000001165 Rises=F Damp=F
 DIIS: error= 5.49D-07 at cycle  11 NSaved=  11.
 NSaved=11 IEnMin=11 EnMin= -76.1844302811099     IErMin=11 ErrMin= 5.49D-07
 ErrMax= 5.49D-07  0.00D+00 EMaxC= 1.00D-01 BMatC= 1.46D-11 BMatP= 2.24D-10
 IDIUse=1 WtCom= 1.00D+00 WtEn= 0.00D+00
 Coeff-Com:  0.657D-05-0.123D-03 0.171D-02-0.905D-02 0.145D-01 0.270D-01
 Coeff-Com: -0.206D+00 0.555D+00-0.388D+00-0.439D+00 0.144D+01
 Coeff:      0.657D-05-0.123D-03 0.171D-02-0.905D-02 0.145D-01 0.270D-01
 Coeff:     -0.206D+00 0.555D+00-0.388D+00-0.439D+00 0.144D+01
 Gap=     0.303 Goal=   None    Shift=    0.000
 Gap=     0.548 Goal=   None    Shift=    0.000
 RMSDP=2.82D-06 MaxDP=4.71D-05 DE=-1.17D-09 OVMax= 2.15D-05

 Initial convergence to 1.0D-05 achieved.  Increase integral accuracy.
 Cycle  12  Pass 1  IDiag  1:
 E= -76.1844330767538     Delta-E=       -0.000002795644 Rises=F Damp=F
 DIIS: error= 3.38D-07 at cycle   1 NSaved=   1.
 NSaved= 1 IEnMin= 1 EnMin= -76.1844330767538     IErMin= 1 ErrMin= 3.38D-07
 ErrMax= 3.38D-07  0.00D+00 EMaxC= 1.00D-01 BMatC= 1.39D-11 BMatP= 1.39D-11
 IDIUse=1 WtCom= 1.00D+00 WtEn= 0.00D+00
 Coeff-Com:  0.100D+01
 Coeff:      0.100D+01
 Gap=     0.303 Goal=   None    Shift=    0.000
 Gap=     0.548 Goal=   None    Shift=    0.000
 RMSDP=2.82D-06 MaxDP=4.71D-05 DE=-2.80D-06 OVMax= 5.28D-07

 Cycle  13  Pass 1  IDiag  1:
 E= -76.1844330767561     Delta-E=       -0.000000000002 Rises=F Damp=F
 DIIS: error= 9.06D-08 at cycle   2 NSaved=   2.
 NSaved= 2 IEnMin= 2 EnMin= -76.1844330767561     IErMin= 2 ErrMin= 9.06D-08
 ErrMax= 9.06D-08  0.00D+00 EMaxC= 1.00D-01 BMatC= 5.78D-13 BMatP= 1.39D-11
 IDIUse=1 WtCom= 1.00D+00 WtEn= 0.00D+00
 Coeff-Com: -0.334D-01 0.103D+01
 Coeff:     -0.334D-01 0.103D+01
 Gap=     0.303 Goal=   None    Shift=    0.000
 Gap=     0.548 Goal=   None    Shift=    0.000
 RMSDP=5.98D-08 MaxDP=9.29D-07 DE=-2.25D-12 OVMax= 3.79D-07

 Cycle  14  Pass 1  IDiag  1:
 E= -76.1844330767563     Delta-E=       -0.000000000000 Rises=F Damp=F
 DIIS: error= 4.79D-08 at cycle   3 NSaved=   3.
 NSaved= 3 IEnMin= 3 EnMin= -76.1844330767563     IErMin= 3 ErrMin= 4.79D-08
 ErrMax= 4.79D-08  0.00D+00 EMaxC= 1.00D-01 BMatC= 2.42D-13 BMatP= 5.78D-13
 IDIUse=1 WtCom= 1.00D+00 WtEn= 0.00D+00
 Coeff-Com: -0.516D-01 0.358D+00 0.694D+00
 Coeff:     -0.516D-01 0.358D+00 0.694D+00
 Gap=     0.303 Goal=   None    Shift=    0.000
 Gap=     0.548 Goal=   None    Shift=    0.000
 RMSDP=2.59D-08 MaxDP=4.26D-07 DE=-2.56D-13 OVMax= 1.89D-07

 Cycle  15  Pass 1  IDiag  1:
 E= -76.1844330767564     Delta-E=       -0.000000000000 Rises=F Damp=F
 DIIS: error= 2.24D-08 at cycle   4 NSaved=   4.
 NSaved= 4 IEnMin= 4 EnMin= -76.1844330767564     IErMin= 4 ErrMin= 2.24D-08
 ErrMax= 2.24D-08  0.00D+00 EMaxC= 1.00D-01 BMatC= 3.98D-14 BMatP= 2.42D-13
 IDIUse=1 WtCom= 1.00D+00 WtEn= 0.00D+00
 Coeff-Com:  0.131D-02-0.153D+00 0.910D-01 0.106D+01
 Coeff:      0.131D-02-0.153D+00 0.910D-01 0.106D+01
 Gap=     0.303 Goal=   None    Shift=    0.000
 Gap=     0.548 Goal=   None    Shift=    0.000
 RMSDP=3.61D-08 MaxDP=6.23D-07 DE=-5.68D-14 OVMax= 2.72D-07

 Cycle  16  Pass 1  IDiag  1:
 E= -76.1844330767564     Delta-E=       -0.000000000000 Rises=F Damp=F
 DIIS: error= 1.18D-08 at cycle   5 NSaved=   5.
 NSaved= 5 IEnMin= 5 EnMin= -76.1844330767564     IErMin= 5 ErrMin= 1.18D-08
 ErrMax= 1.18D-08  0.00D+00 EMaxC= 1.00D-01 BMatC= 1.10D-14 BMatP= 3.98D-14
 IDIUse=1 WtCom= 1.00D+00 WtEn= 0.00D+00
 Coeff-Com:  0.778D-02-0.138D-01-0.161D+00-0.359D+00 0.153D+01
 Coeff:      0.778D-02-0.138D-01-0.161D+00-0.359D+00 0.153D+01
 Gap=     0.303 Goal=   None    Shift=    0.000
 Gap=     0.548 Goal=   None    Shift=    0.000
 RMSDP=4.20D-08 MaxDP=7.01D-07 DE=-5.68D-14 OVMax= 3.20D-07

 Cycle  17  Pass 1  IDiag  1:
 E= -76.1844330767565     Delta-E=       -0.000000000000 Rises=F Damp=F
 DIIS: error= 8.13D-09 at cycle   6 NSaved=   6.
 NSaved= 6 IEnMin= 6 EnMin= -76.1844330767565     IErMin= 6 ErrMin= 8.13D-09
 ErrMax= 8.13D-09  0.00D+00 EMaxC= 1.00D-01 BMatC= 4.53D-15 BMatP= 1.10D-14
 IDIUse=1 WtCom= 1.00D+00 WtEn= 0.00D+00
 Coeff-Com: -0.771D-02 0.773D-01 0.102D+00-0.120D+00-0.129D+01 0.224D+01
 Coeff:     -0.771D-02 0.773D-01 0.102D+00-0.120D+00-0.129D+01 0.224D+01
 Gap=     0.303 Goal=   None    Shift=    0.000
 Gap=     0.548 Goal=   None    Shift=    0.000
 RMSDP=5.17D-08 MaxDP=8.46D-07 DE=-2.84D-14 OVMax= 3.94D-07

 Cycle  18  Pass 1  IDiag  1:
 E= -76.1844330767565     Delta-E=       -0.000000000000 Rises=F Damp=F
 DIIS: error= 3.61D-09 at cycle   7 NSaved=   7.
 NSaved= 7 IEnMin= 7 EnMin= -76.1844330767565     IErMin= 7 ErrMin= 3.61D-09
 ErrMax= 3.61D-09  0.00D+00 EMaxC= 1.00D-01 BMatC= 1.02D-15 BMatP= 4.53D-15
 IDIUse=1 WtCom= 1.00D+00 WtEn= 0.00D+00
 Coeff-Com:  0.329D-02-0.508D-01-0.225D-01 0.184D+00 0.582D+00-0.184D+01
 Coeff-Com:  0.214D+01
 Coeff:      0.329D-02-0.508D-01-0.225D-01 0.184D+00 0.582D+00-0.184D+01
 Coeff:      0.214D+01
 Gap=     0.303 Goal=   None    Shift=    0.000
 Gap=     0.548 Goal=   None    Shift=    0.000
 RMSDP=3.14D-08 MaxDP=5.15D-07 DE=-8.53D-14 OVMax= 2.40D-07

 Cycle  19  Pass 1  IDiag  1:
 E= -76.1844330767565     Delta-E=        0.000000000000 Rises=F Damp=F
 DIIS: error= 1.12D-09 at cycle   8 NSaved=   8.
 NSaved= 8 IEnMin= 7 EnMin= -76.1844330767565     IErMin= 8 ErrMin= 1.12D-09
 ErrMax= 1.12D-09  0.00D+00 EMaxC= 1.00D-01 BMatC= 1.09D-16 BMatP= 1.02D-15
 IDIUse=1 WtCom= 1.00D+00 WtEn= 0.00D+00
 Coeff-Com:  0.121D-04 0.932D-02-0.129D-01-0.576D-01 0.864D-02 0.303D+00
 Coeff-Com: -0.847D+00 0.160D+01
 Coeff:      0.121D-04 0.932D-02-0.129D-01-0.576D-01 0.864D-02 0.303D+00
 Coeff:     -0.847D+00 0.160D+01
 Gap=     0.303 Goal=   None    Shift=    0.000
 Gap=     0.548 Goal=   None    Shift=    0.000
 RMSDP=9.80D-09 MaxDP=1.60D-07 DE= 0.00D+00 OVMax= 7.46D-08

 SCF Done:  E(ULC-wHPBE) =  -76.1844330768     A.U. after   19 cycles
            NFock= 19  Conv=0.98D-08     -V/T= 2.0025
 <Sx>= 0.0000 <Sy>= 0.0000 <Sz>= 0.5000 <S**2>= 0.7535 S= 0.5018
 <L.S>= 0.000000000000E+00
 KE= 7.599269366428D+01 PE=-2.010808922116D+02 EE= 4.028311769923D+01
 Annihilation of the first spin contaminant:
 S**2 before annihilation     0.7535,   after     0.7500
 Leave Link  502 at Thu Sep  1 11:56:47 2022, MaxMem=  6442450944 cpu:               9.3 elap:               0.6
 (Enter /mnt/gpfs3_amd/share/apps/amd/gaussian/g16-A.03/g16/l801.exe)
 DoSCS=F DFT=T ScalE2(SS,OS)=  1.000000  1.000000
 ExpMin= 1.22D-01 ExpMax= 2.27D+03 ExpMxC= 3.41D+02 IAcc=3 IRadAn=         5 AccDes= 0.00D+00
 HarFok:  IExCor=  205 AccDes= 0.00D+00 IRadAn=         5 IDoV=-2 UseB2=F ITyADJ=14
 ICtDFT= 12500011 ScaDFX=  1.000000  1.000000  1.000000  1.000000
 Largest valence mixing into a core orbital is  4.10D-05
 Largest core mixing into a valence orbital is  1.90D-05
 Largest valence mixing into a core orbital is  4.14D-05
 Largest core mixing into a valence orbital is  7.98D-06
 Range of M.O.s used for correlation:     2    24
 NBasis=    24 NAE=     6 NBE=     5 NFC=     1 NFV=     0
 NROrb=     23 NOA=     5 NOB=     4 NVA=    18 NVB=    19
 Leave Link  801 at Thu Sep  1 11:56:47 2022, MaxMem=  6442450944 cpu:               0.4 elap:               0.0
 (Enter /mnt/gpfs3_amd/share/apps/amd/gaussian/g16-A.03/g16/l914.exe)
 UHF ground state
 Ignoring spin specification with unrestricted ground state.
 Keep R1, R2, and R3 ints in memory in symmetry-blocked form, NReq=21002546.
 FoFCou: FMM=F IPFlag=           0 FMFlag=           0 FMFlg1=           0
         NFxFlg=           0 DoJE=F BraDBF=F KetDBF=F FulRan=T
         wScrn=  0.000000 ICntrl=       600 IOpCl=  0 I1Cent=           0 NGrid=           0
         NMat0=    1 NMatS0=    300 NMatT0=    0 NMatD0=    1 NMtDS0=    0 NMtDT0=    0
 Petite list used in FoFCou.
 MDV=  6442450944 DFT=T DoStab=F Mixed=T DoRPA=T DoScal=F NonHer=T
 Making orbital integer symmetry assigments:
 Orbital symmetries:
 Alpha Orbitals:
       Occupied  (A') (A') (A') (A') (A") (A')
       Virtual   (A') (A') (A') (A') (A") (A') (A') (A') (A") (A")
                 (A') (A') (A') (A") (A") (A') (A') (A')
 Beta  Orbitals:
       Occupied  (A') (A') (A') (A') (A")
       Virtual   (A') (A') (A') (A') (A') (A") (A') (A') (A') (A")
                 (A") (A') (A') (A') (A") (A") (A') (A') (A')
    60 initial guesses have been made.
 Convergence on wavefunction:    0.001000000000000
 Davidson Disk Diagonalization:  ConvIn= 1.00D-03 SkipCon=T Conv= 1.00D-03.
 Max sub-space:   498 roots to seek:    60 dimension of matrix:          166
 Iteration     1 Dimension    60 NMult     0 NNew     60
 CISAX will form    60 AO SS matrices at one time.
 NMat=    60 NSing=    60 JSym2X=-1.
 New state      8 was old state      9
 New state      9 was old state      8
 New state     10 was old state     11
 New state     11 was old state     10
 New state     15 was old state     16
 Excitation Energies [eV] at current iteration:
 Root      1 :     1.898809195292483
 Root      2 :     6.900370042965964
 Root      3 :     7.098651583622249
 Root      4 :     8.702644748265039
 Root      5 :     9.472986336019915
 Root      6 :     9.832366348576908
 Root      7 :    11.612501774643780
 Root      8 :    11.643241791952690
 Root      9 :    11.710465230320300
 Root     10 :    13.957708646743300
 Root     11 :    14.703195327847150
 Root     12 :    16.729019663887120
 Root     13 :    19.536437235086860
 Root     14 :    19.877092135328560
 Root     15 :    21.495566370425560
 Root     16 :    21.838754298190390
 Root     17 :    22.614108062857190
 Root     18 :    23.034426396475490
 Root     19 :    23.919947256303590
 Root     20 :    24.583154419330410
 Root     21 :    25.321168164918910
 Root     22 :    25.397199189827440
 Root     23 :    25.448781277031140
 Root     24 :    25.747843485343090
 Root     25 :    25.895366091833400
 Root     26 :    26.278676194380340
 Root     27 :    27.363954703581560
 Root     28 :    27.464071743875170
 Root     29 :    27.638980914544550
 Root     30 :    28.196789246180680
 Root     31 :    28.512941773068170
 Root     32 :    29.121193929215430
 Root     33 :    29.972236118209950
 Root     34 :    30.359934362526670
 Root     35 :    30.879682360326440
 Root     36 :    31.550286565688190
 Root     37 :    31.637805708667840
 Root     38 :    32.073512997760720
 Root     39 :    32.449109064558010
 Root     40 :    32.904737097052380
 Root     41 :    34.031028466349890
 Root     42 :    34.622030551772110
 Root     43 :    34.854812196055490
 Root     44 :    35.129283079064070
 Root     45 :    35.172491059357780
 Root     46 :    35.243187938244160
 Root     47 :    35.513231792662770
 Root     48 :    35.841731211577330
 Root     49 :    35.959375135136380
 Root     50 :    36.440131141262050
 Root     51 :    36.660429930111700
 Root     52 :    37.578529930599570
 Root     53 :    37.661358117345700
 Root     54 :    38.083380974177860
 Root     55 :    39.181436049087990
 Root     56 :    39.442459481864620
 Root     57 :    39.975883938359130
 Root     58 :    40.907996278213070
 Root     59 :    41.233704708249920
 Root     60 :    47.169753241098570
 Iteration     2 Dimension    90 NMult    60 NNew     30
 CISAX will form    30 AO SS matrices at one time.
 NMat=    30 NSing=    30 JSym2X=-1.
 Root      1 not converged, maximum delta is    0.022813235334447
 Root      2 not converged, maximum delta is    0.016947112973892
 Root      3 not converged, maximum delta is    0.013424424931673
 Root      4 not converged, maximum delta is    0.010824377593337
 Root      5 not converged, maximum delta is    0.012269524242242
 Root      6 not converged, maximum delta is    0.011349935154591
 Root      7 not converged, maximum delta is    0.060280256522233
 Root      8 not converged, maximum delta is    0.073290448448546
 Root      9 not converged, maximum delta is    0.035733465828561
 Root     10 not converged, maximum delta is    0.012837162646272
 Root     11 not converged, maximum delta is    0.026392512730313
 Root     12 not converged, maximum delta is    0.026840346933023
 Root     13 not converged, maximum delta is    0.025407920885704
 Root     14 not converged, maximum delta is    0.019843726720457
 Root     15 not converged, maximum delta is    0.026241311286595
 Excitation Energies [eV] at current iteration:
 Root      1 :     1.844764544844355   Change is   -0.054044650448128
 Root      2 :     6.852200859820613   Change is   -0.048169183145351
 Root      3 :     7.075709070107784   Change is   -0.022942513514465
 Root      4 :     8.686554644570371   Change is   -0.016090103694668
 Root      5 :     9.446472840460444   Change is   -0.026513495559470
 Root      6 :     9.789942526303591   Change is   -0.042423822273316
 Root      7 :    11.549960283674680   Change is   -0.062541490969101
 Root      8 :    11.608364855976740   Change is   -0.034876935975948
 Root      9 :    11.655755305578000   Change is   -0.054709924742299
 Root     10 :    13.934811036648790   Change is   -0.022897610094515
 Root     11 :    14.628691960435140   Change is   -0.074503367412006
 Root     12 :    16.654206776880860   Change is   -0.074812887006260
 Root     13 :    19.474522827886030   Change is   -0.061914407200825
 Root     14 :    19.842220233890620   Change is   -0.034871901437940
 Root     15 :    21.407593005012930   Change is   -0.087973365412626
 Iteration     3 Dimension   120 NMult    90 NNew     30
 CISAX will form    30 AO SS matrices at one time.
 NMat=    30 NSing=    30 JSym2X=-1.
 Root      1 not converged, maximum delta is    0.001025638834135
 Root      2 not converged, maximum delta is    0.002835437017349
 Root      3 has converged.
 Root      4 has converged.
 Root      5 has converged.
 Root      6 has converged.
 Root      7 has converged.
 Root      8 has converged.
 Root      9 not converged, maximum delta is    0.001505119071609
 Root     10 has converged.
 Root     11 not converged, maximum delta is    0.001146533945299
 Root     12 not converged, maximum delta is    0.001815019527676
 Root     13 has converged.
 Root     14 has converged.
 Root     15 has converged.
 Excitation Energies [eV] at current iteration:
 Root      1 :     1.844639989027410   Change is   -0.000124555816946
 Root      2 :     6.851325004878919   Change is   -0.000875854941694
 Root      3 :     7.075702060506640   Change is   -0.000007009601144
 Root      4 :     8.686546590106488   Change is   -0.000008054463883
 Root      5 :     9.446391864606545   Change is   -0.000080975853899
 Root      6 :     9.789883152651191   Change is   -0.000059373652401
 Root      7 :    11.549742993892270   Change is   -0.000217289782408
 Root      8 :    11.608283560477720   Change is   -0.000081295499024
 Root      9 :    11.655449248052790   Change is   -0.000306057525212
 Root     10 :    13.934733242536070   Change is   -0.000077794112720
 Root     11 :    14.628368575119750   Change is   -0.000323385315387
 Root     12 :    16.653441951528000   Change is   -0.000764825352856
 Root     13 :    19.474381966815060   Change is   -0.000140861070981
 Root     14 :    19.842162066626850   Change is   -0.000058167263767
 Root     15 :    21.407148778794760   Change is   -0.000444226218173
 Iteration     4 Dimension   130 NMult   120 NNew     10
 CISAX will form    10 AO SS matrices at one time.
 NMat=    10 NSing=    10 JSym2X=-1.
 Root      1 has converged.
 Root      2 has converged.
 Root      3 has converged.
 Root      4 has converged.
 Root      5 has converged.
 Root      6 has converged.
 Root      7 has converged.
 Root      8 has converged.
 Root      9 has converged.
 Root     10 has converged.
 Root     11 has converged.
 Root     12 has converged.
 Root     13 has converged.
 Root     14 has converged.
 Root     15 has converged.
 Excitation Energies [eV] at current iteration:
 Root      1 :     1.844639978946712   Change is   -0.000000010080697
 Root      2 :     6.851321875017550   Change is   -0.000003129861369
 Root      3 :     7.075702060197361   Change is   -0.000000000309279
 Root      4 :     8.686546590083529   Change is   -0.000000000022960
 Root      5 :     9.446391847973981   Change is   -0.000000016632563
 Root      6 :     9.789883141058382   Change is   -0.000000011592809
 Root      7 :    11.549742865148610   Change is   -0.000000128743665
 Root      8 :    11.608283497993130   Change is   -0.000000062484592
 Root      9 :    11.655449110612070   Change is   -0.000000137440718
 Root     10 :    13.934733191501180   Change is   -0.000000051034892
 Root     11 :    14.628367715345670   Change is   -0.000000859774086
 Root     12 :    16.653438811400350   Change is   -0.000003140127653
 Root     13 :    19.474381964744360   Change is   -0.000000002070690
 Root     14 :    19.842162063020970   Change is   -0.000000003605880
 Root     15 :    21.407147134289340   Change is   -0.000001644505414
 Convergence achieved on expansion vectors.
 ***********************************************************************
 Excited states from <AA,BB:AA,BB> singles matrix:
 ***********************************************************************
 
 ExtSpn:  IState=     1 X2= 1.013 Y2= 0.013 X2-Y2-1= 0.00D+00
          S2Grnd=  0.754 Ra= -0.000 Rb=  0.002 T= -0.010 S2Ext= -0.009 S2=  0.745
 ExtSpn:  IState=     2 X2= 1.001 Y2= 0.001 X2-Y2-1=-1.11D-16
          S2Grnd=  0.754 Ra=  0.001 Rb=  0.002 T=  0.003 S2Ext=  0.006 S2=  0.760
 ExtSpn:  IState=     3 X2= 1.001 Y2= 0.001 X2-Y2-1= 4.44D-16
          S2Grnd=  0.754 Ra=  0.962 Rb=  0.035 T=  0.366 S2Ext=  1.362 S2=  2.116
 ExtSpn:  IState=     4 X2= 1.001 Y2= 0.001 X2-Y2-1=-1.11D-16
          S2Grnd=  0.754 Ra=  0.035 Rb=  0.962 T= -0.366 S2Ext=  0.631 S2=  1.385
 ExtSpn:  IState=     5 X2= 1.002 Y2= 0.002 X2-Y2-1= 0.00D+00
          S2Grnd=  0.754 Ra=  0.049 Rb=  0.004 T=  0.022 S2Ext=  0.076 S2=  0.829
 ExtSpn:  IState=     6 X2= 1.004 Y2= 0.004 X2-Y2-1=-1.11D-16
          S2Grnd=  0.754 Ra=  0.804 Rb=  0.149 T=  0.689 S2Ext=  1.643 S2=  2.396
 ExtSpn:  IState=     7 X2= 1.003 Y2= 0.003 X2-Y2-1= 0.00D+00
          S2Grnd=  0.754 Ra=  0.196 Rb=  0.633 T= -0.679 S2Ext=  0.149 S2=  0.903
 ExtSpn:  IState=     8 X2= 1.006 Y2= 0.006 X2-Y2-1=-2.22D-16
          S2Grnd=  0.754 Ra=  0.626 Rb=  0.291 T=  0.850 S2Ext=  1.766 S2=  2.520
 ExtSpn:  IState=     9 X2= 1.001 Y2= 0.001 X2-Y2-1=-2.22D-16
          S2Grnd=  0.754 Ra=  0.018 Rb=  0.219 T=  0.027 S2Ext=  0.264 S2=  1.018
 ExtSpn:  IState=    10 X2= 1.001 Y2= 0.001 X2-Y2-1= 2.22D-16
          S2Grnd=  0.754 Ra=  0.004 Rb=  0.003 T= -0.003 S2Ext=  0.004 S2=  0.758
 ExtSpn:  IState=    11 X2= 1.006 Y2= 0.006 X2-Y2-1=-3.33D-16
          S2Grnd=  0.754 Ra=  0.270 Rb=  0.656 T= -0.836 S2Ext=  0.090 S2=  0.844
 ExtSpn:  IState=    12 X2= 1.004 Y2= 0.004 X2-Y2-1= 2.22D-16
          S2Grnd=  0.754 Ra=  0.040 Rb=  0.038 T= -0.063 S2Ext=  0.014 S2=  0.768
 ExtSpn:  IState=    13 X2= 1.000 Y2= 0.000 X2-Y2-1=-1.11D-16
          S2Grnd=  0.754 Ra=  0.672 Rb=  0.328 T=  0.938 S2Ext=  1.938 S2=  2.692
 ExtSpn:  IState=    14 X2= 1.000 Y2= 0.000 X2-Y2-1=-1.11D-16
          S2Grnd=  0.754 Ra=  0.328 Rb=  0.672 T= -0.938 S2Ext=  0.062 S2=  0.815
 ExtSpn:  IState=    15 X2= 1.002 Y2= 0.002 X2-Y2-1= 4.44D-16
          S2Grnd=  0.754 Ra=  0.448 Rb=  0.550 T=  0.991 S2Ext=  1.989 S2=  2.742
 1PDM for each excited state written to RWF  633
 Ground to excited state transition densities written to RWF  633
 Ground to excited state transition electric dipole moments (Au):
       state          X           Y           Z        Dip. S.      Osc.
         1         1.7675      0.0026     -0.0000      3.1241      0.1412
         2        -0.0000      0.0000      0.2163      0.0468      0.0079
         3        -0.0000     -0.0000     -0.0057      0.0000      0.0000
         4         0.0000     -0.0000      0.0009      0.0000      0.0000
         5         0.0040      0.4068      0.0000      0.1655      0.0383
         6         0.1507     -0.0039      0.0000      0.0227      0.0054
         7        -0.9260      0.0143     -0.0000      0.8577      0.2427
         8         0.1367      0.2009     -0.0000      0.0591      0.0168
         9         0.3537     -0.0347     -0.0000      0.1263      0.0361
        10         0.6718      0.0050     -0.0000      0.4513      0.1541
        11        -0.0113     -0.4998      0.0000      0.2500      0.0896
        12        -0.0075      0.5664      0.0000      0.3209      0.1309
        13         0.0000     -0.0000      0.0006      0.0000      0.0000
        14        -0.0000     -0.0000      0.0013      0.0000      0.0000
        15        -0.0019      0.0008      0.0000      0.0000      0.0000
 Ground to excited state transition velocity dipole moments (Au):
       state          X           Y           Z        Dip. S.      Osc.
         1        -0.1657     -0.0008      0.0000      0.0275      0.2701
         2        -0.0000     -0.0000     -0.1410      0.0199      0.0526
         3         0.0000      0.0000      0.0037      0.0000      0.0000
         4        -0.0000      0.0000     -0.0006      0.0000      0.0000
         5        -0.0013     -0.2145      0.0000      0.0460      0.0884
         6        -0.0501      0.0022     -0.0000      0.0025      0.0047
         7         0.4021     -0.0080      0.0000      0.1617      0.2540
         8        -0.0610     -0.1013     -0.0000      0.0140      0.0218
         9        -0.1628      0.0177      0.0000      0.0268      0.0417
        10        -0.2606     -0.0025     -0.0000      0.0679      0.0884
        11         0.0037      0.2800      0.0000      0.0784      0.0973
        12         0.0032     -0.3127      0.0000      0.0978      0.1066
        13        -0.0000      0.0000     -0.0003      0.0000      0.0000
        14        -0.0000     -0.0000     -0.0009      0.0000      0.0000
        15         0.0007     -0.0009     -0.0000      0.0000      0.0000
 Ground to excited state transition magnetic dipole moments (Au):
       state          X           Y           Z
         1         0.0000      0.0000     -0.3311
         2         0.1527     -0.0031      0.0000
         3        -0.0017     -0.2362      0.0000
         4        -0.0019      0.2909      0.0000
         5         0.0000      0.0000      0.0008
         6         0.0000      0.0000      0.1706
         7         0.0000      0.0000     -0.2383
         8        -0.0000      0.0000     -0.0092
         9        -0.0000     -0.0000     -0.1817
        10         0.0000      0.0000     -0.0627
        11        -0.0000     -0.0000      0.0043
        12         0.0000      0.0000      0.0008
        13        -0.0006      0.0443     -0.0000
        14        -0.0014      0.2424     -0.0000
        15        -0.0000      0.0000     -0.0364
 Ground to excited state transition velocity quadrupole moments (Au):
       state          XX          YY          ZZ          XY          XZ          YZ
         1        -0.0014      0.0014     -0.0004      0.1852     -0.0000      0.0000
         2        -0.0000     -0.0000     -0.0000      0.0000      0.0004      0.0780
         3         0.0000      0.0000      0.0000     -0.0000      0.1580     -0.0015
         4        -0.0000     -0.0000     -0.0000      0.0000     -0.2197     -0.0005
         5         0.0591      0.1953      0.0168     -0.0001     -0.0000      0.0000
         6        -0.0007     -0.0014     -0.0001      0.1331      0.0000     -0.0000
         7         0.0187      0.0032      0.0025     -0.5509     -0.0000      0.0000
         8         0.2292      0.0875      0.0388      0.0600     -0.0000     -0.0000
         9        -0.0417     -0.0146     -0.0066      0.0715      0.0000     -0.0000
        10        -0.0000      0.0165      0.0044      0.5292     -0.0000     -0.0000
        11        -1.0144     -0.2522     -0.1533     -0.0134      0.0000      0.0000
        12         1.1842      0.8161      0.3515     -0.0032     -0.0000      0.0000
        13         0.0000     -0.0000      0.0000      0.0000      0.0745      0.0004
        14        -0.0000     -0.0000      0.0000     -0.0000      0.4314      0.0020
        15         0.0032      0.0023      0.0012      0.0133      0.0000      0.0000
 <0|del|b> * <b|rxdel|0> + <0|del|b> * <b|delr+rdel|0>
 Rotatory Strengths (R) in cgs (10**-40 erg-esu-cm/Gauss)
       state          XX          YY          ZZ    R(velocity)    E-M Angle
         1        -0.0000     -0.0000      0.0000     -0.0000       90.00
         2        -0.0000     -0.0000     -0.0000     -0.0000       90.00
         3        -0.0000      0.0000     -0.0000     -0.0000       90.00
         4         0.0000      0.0000      0.0000      0.0000       90.00
         5        -0.0000     -0.0000      0.0000     -0.0000       90.00
         6        -0.0000      0.0000     -0.0000     -0.0000       90.00
         7        -0.0000      0.0000     -0.0000      0.0000       90.00
         8        -0.0000      0.0000     -0.0000     -0.0000       90.00
         9        -0.0000      0.0000     -0.0000     -0.0000       90.00
        10        -0.0000      0.0000     -0.0000     -0.0000       90.00
        11        -0.0000      0.0000     -0.0000     -0.0000       90.00
        12        -0.0000      0.0000      0.0000     -0.0000       90.00
        13        -0.0000      0.0000      0.0000      0.0000       90.00
        14         0.0000     -0.0000     -0.0000     -0.0000       90.00
        15         0.0000      0.0000     -0.0000      0.0000       90.00
 1/2[<0|r|b>*<b|rxdel|0> + (<0|rxdel|b>*<b|r|0>)*]
 Rotatory Strengths (R) in cgs (10**-40 erg-esu-cm/Gauss)
       state          XX          YY          ZZ     R(length)
         1        -0.0000     -0.0000     -0.0000     -0.0000
         2         0.0000      0.0000     -0.0000     -0.0000
         3        -0.0000     -0.0000      0.0000     -0.0000
         4         0.0000      0.0000     -0.0000      0.0000
         5        -0.0000     -0.0000     -0.0000     -0.0000
         6        -0.0000      0.0000     -0.0000     -0.0000
         7         0.0000     -0.0000     -0.0000      0.0000
         8         0.0000     -0.0000     -0.0000     -0.0000
         9         0.0000     -0.0000     -0.0000      0.0000
        10        -0.0000     -0.0000     -0.0000     -0.0000
        11        -0.0000     -0.0000     -0.0000     -0.0000
        12         0.0000     -0.0000     -0.0000     -0.0000
        13         0.0000      0.0000      0.0000      0.0000
        14        -0.0000      0.0000      0.0000      0.0000
        15        -0.0000     -0.0000      0.0000      0.0000
  1/2[<0|del|b>*<b|r|0> + (<0|r|b>*<b|del|0>)*] (Au)
       state          X           Y           Z        Dip. S.   Osc.(frdel)
         1        -0.2929     -0.0000     -0.0000      0.2929      0.1953
         2         0.0000     -0.0000     -0.0305      0.0305      0.0203
         3        -0.0000     -0.0000     -0.0000      0.0000      0.0000
         4        -0.0000     -0.0000     -0.0000      0.0000      0.0000
         5        -0.0000     -0.0873      0.0000      0.0873      0.0582
         6        -0.0075     -0.0000     -0.0000      0.0075      0.0050
         7        -0.3723     -0.0001     -0.0000      0.3724      0.2483
         8        -0.0083     -0.0203      0.0000      0.0287      0.0191
         9        -0.0576     -0.0006     -0.0000      0.0582      0.0388
        10        -0.1751     -0.0000      0.0000      0.1751      0.1167
        11        -0.0000     -0.1400      0.0000      0.1400      0.0933
        12        -0.0000     -0.1772      0.0000      0.1772      0.1181
        13        -0.0000     -0.0000     -0.0000      0.0000      0.0000
        14         0.0000      0.0000     -0.0000      0.0000      0.0000
        15        -0.0000     -0.0000     -0.0000      0.0000      0.0000

 Excitation energies and oscillator strengths:
 
 Excited State   1:  1.995-A'     1.8446 eV  672.13 nm  f=0.1412  <S**2>=0.745
      6A ->  7A        0.99886
 This state for optimization and/or second-order correction.
 Total Energy, E(TD-HF/TD-DFT) =  -76.1166438048    
 Copying the excited state density for this state as the 1-particle RhoCI density.
 
 Excited State   2:  2.009-A"     6.8513 eV  180.96 nm  f=0.0079  <S**2>=0.760
      5B ->  6B        0.99486
 
 Excited State   3:  3.076-A"     7.0757 eV  175.23 nm  f=0.0000  <S**2>=2.116
      5A ->  7A        0.97408
      5A ->  8A       -0.11607
      5B ->  7B        0.18290
 
 Excited State   4:  2.557-A"     8.6865 eV  142.73 nm  f=0.0000  <S**2>=1.385
      5A ->  7A       -0.18773
      5B ->  7B        0.97278
      5B ->  8B        0.12661
 
 Excited State   5:  2.078-A'     9.4464 eV  131.25 nm  f=0.0383  <S**2>=0.829
      3A ->  7A       -0.21490
      4B ->  6B        0.96848
 
 Excited State   6:  3.253-A'     9.7899 eV  126.65 nm  f=0.0054  <S**2>=2.396
      4A ->  7A        0.88967
      4A ->  8A       -0.11303
      3B ->  6B       -0.20718
      4B ->  7B        0.37651
 
 Excited State   7:  2.148-A'    11.5497 eV  107.35 nm  f=0.2427  <S**2>=0.903
      4A ->  7A       -0.43438
      3B ->  6B       -0.39871
      4B ->  7B        0.79095
 
 Excited State   8:  3.328-A'    11.6083 eV  106.81 nm  f=0.0168  <S**2>=2.520
      3A ->  7A        0.78448
      3A ->  8A       -0.10739
      3B ->  6B        0.17945
      3B ->  7B        0.52435
      3B ->  8B        0.11570
      4B ->  6B        0.20549
 
 Excited State   9:  2.252-A'    11.6554 eV  106.37 nm  f=0.0361  <S**2>=1.018
      3A ->  7A       -0.12853
      3B ->  6B        0.86630
      4B ->  7B        0.45849
 
 Excited State  10:  2.008-A'    13.9347 eV   88.97 nm  f=0.1541  <S**2>=0.758
      6A ->  8A        0.99474
 
 Excited State  11:  2.092-A'    14.6284 eV   84.76 nm  f=0.0896  <S**2>=0.844
      3A ->  7A       -0.51211
      6A ->  9A        0.25387
      3B ->  7B        0.80885
 
 Excited State  12:  2.018-A'    16.6534 eV   74.45 nm  f=0.1309  <S**2>=0.768
      3A ->  7A        0.18648
      6A ->  9A        0.95611
      3B ->  7B       -0.16488
 
 Excited State  13:  3.430-A"    19.4744 eV   63.67 nm  f=0.0000  <S**2>=2.692
      5A ->  7A        0.10198
      5A ->  8A        0.81265
      5B ->  8B       -0.56557
 
 Excited State  14:  2.064-A"    19.8422 eV   62.49 nm  f=0.0000  <S**2>=0.815
      5A ->  8A        0.57008
      5B ->  8B        0.81333
 
 Excited State  15:  3.460-A'    21.4071 eV   57.92 nm  f=0.0000  <S**2>=2.742
      3A ->  9A       -0.16153
      4A ->  8A       -0.64022
      3B ->  9B        0.13815
      4B ->  7B       -0.12462
      4B ->  8B        0.71663
 SavETr:  write IOETrn=   770 NScale= 10 NData=  16 NLR=1 NState=   15 LETran=     280.
 Leave Link  914 at Thu Sep  1 11:56:49 2022, MaxMem=  6442450944 cpu:              39.1 elap:               2.5
 (Enter /mnt/gpfs3_amd/share/apps/amd/gaussian/g16-A.03/g16/l601.exe)
 Copying SCF densities to generalized density rwf, IOpCl= 1 IROHF=0.

 **********************************************************************

            Population analysis using the SCF density.

 **********************************************************************

 Orbital symmetries:
 Alpha Orbitals:
       Occupied  (A') (A') (A') (A') (A") (A')
       Virtual   (A') (A') (A') (A') (A") (A') (A') (A') (A") (A")
                 (A') (A') (A') (A") (A") (A') (A') (A')
 Beta  Orbitals:
       Occupied  (A') (A') (A') (A') (A")
       Virtual   (A') (A') (A') (A') (A') (A") (A') (A') (A') (A")
                 (A") (A') (A') (A') (A") (A") (A') (A') (A')
 The electronic state is 2-A'.
 Alpha  occ. eigenvalues --  -18.68923  -0.82138  -0.31122  -0.23355  -0.13378
 Alpha  occ. eigenvalues --    0.12878
 Alpha virt. eigenvalues --    0.43131   0.93784   1.02501   1.33949   1.35841
 Alpha virt. eigenvalues --    1.43392   1.56315   1.75301   1.82851   1.95324
 Alpha virt. eigenvalues --    2.24364   2.55050   2.61185   3.37578   3.40015
 Alpha virt. eigenvalues --    3.55010   3.87177   4.24669
  Beta  occ. eigenvalues --  -18.68361  -0.80331  -0.30264  -0.21600  -0.12684
  Beta virt. eigenvalues --    0.42143   0.48927   0.94760   1.06012   1.35248
  Beta virt. eigenvalues --    1.37181   1.44538   1.57632   1.76385   1.83902
  Beta virt. eigenvalues --    1.96330   2.25626   2.56701   2.63166   3.37999
  Beta virt. eigenvalues --    3.41539   3.56250   3.88253   4.25908
          Condensed to atoms (all electrons):
               1          2          3
     1  O    9.131719  -0.414451  -0.432001
     2  H   -0.414451   1.371691   0.394335
     3  H   -0.432001   0.394335   1.400825
          Atomic-Atomic Spin Densities.
               1          2          3
     1  O    1.401351  -0.723929  -0.741372
     2  H   -0.723929   0.815477   0.432482
     3  H   -0.741372   0.432482   0.848810
 Mulliken charges and spin densities:
               1          2
     1  O   -0.285267  -0.063950
     2  H   -0.351575   0.524030
     3  H   -0.363159   0.539920
 Sum of Mulliken charges =  -1.00000   1.00000
 Mulliken charges and spin densities with hydrogens summed into heavy atoms:
               1          2
     1  O   -1.000000   1.000000
 Electronic spatial extent (au):  <R**2>=             32.4983
 Charge=             -1.0000 electrons
 Dipole moment (field-independent basis, Debye):
    X=              0.0601    Y=              1.1339    Z=              0.0000  Tot=              1.1354
 Quadrupole moment (field-independent basis, Debye-Ang):
   XX=            -11.6789   YY=            -12.1844   ZZ=            -10.6969
   XY=             -0.0556   XZ=              0.0000   YZ=              0.0000
 Traceless Quadrupole moment (field-independent basis, Debye-Ang):
   XX=             -0.1588   YY=             -0.6643   ZZ=              0.8232
   XY=             -0.0556   XZ=              0.0000   YZ=              0.0000
 Octapole moment (field-independent basis, Debye-Ang**2):
  XXX=              0.1796  YYY=              7.6371  ZZZ=              0.0000  XYY=              0.0818
  XXY=              3.2825  XXZ=              0.0000  XZZ=              0.0435  YZZ=              2.1057
  YYZ=              0.0000  XYZ=              0.0000
 Hexadecapole moment (field-independent basis, Debye-Ang**3):
 XXXX=            -29.2048 YYYY=            -25.5337 ZZZZ=            -12.3007 XXXY=             -0.1639
 XXXZ=              0.0000 YYYX=             -0.1521 YYYZ=              0.0000 ZZZX=              0.0000
 ZZZY=              0.0000 XXYY=             -9.2973 XXZZ=             -6.7526 YYZZ=             -6.2223
 XXYZ=              0.0000 YYXZ=              0.0000 ZZXY=             -0.0425
 N-N= 8.620647771374D+00 E-N=-2.010808922123D+02  KE= 7.599269366427D+01
 Symmetry A'   KE= 7.149943683692D+01
 Symmetry A"   KE= 4.493256827359D+00
 Symmetry A'   SP= 1.000000000000D+00
 Symmetry A"   SP=-4.389663545851D-15
 Leave Link  601 at Thu Sep  1 11:56:49 2022, MaxMem=  6442450944 cpu:               0.2 elap:               0.0
 (Enter /mnt/gpfs3_amd/share/apps/amd/gaussian/g16-A.03/g16/l9999.exe)
 Electronic transition elements 
                 1             2             3             4             5 
      1  -0.761166D+02 -0.759327D+02 -0.759244D+02 -0.758652D+02 -0.758373D+02
      2   0.176751D+01  0.000000D+00  0.000000D+00  0.000000D+00  0.399867D-02
      3   0.260771D-02  0.000000D+00  0.000000D+00  0.000000D+00  0.406788D+00
      4   0.000000D+00  0.216315D+00 -0.566066D-02  0.897372D-03  0.000000D+00
      5  -0.165738D+00  0.000000D+00  0.000000D+00  0.000000D+00 -0.132452D-02
      6  -0.812290D-03  0.000000D+00  0.000000D+00  0.000000D+00 -0.214494D+00
      7   0.000000D+00 -0.140973D+00  0.371575D-02 -0.645195D-03  0.000000D+00
      8   0.000000D+00  0.152728D+00 -0.171973D-02 -0.186974D-02  0.000000D+00
      9   0.000000D+00 -0.314639D-02 -0.236158D+00  0.290871D+00  0.000000D+00
     10  -0.331085D+00  0.000000D+00  0.000000D+00  0.000000D+00  0.771194D-03
     11  -0.135888D-02  0.000000D+00  0.000000D+00  0.000000D+00  0.590653D-01
     12   0.142840D-02  0.000000D+00  0.000000D+00  0.000000D+00  0.195329D+00
     13  -0.397618D-03  0.000000D+00  0.000000D+00  0.000000D+00  0.167836D-01
     14   0.185210D+00  0.000000D+00  0.000000D+00  0.000000D+00 -0.625808D-04
     15   0.000000D+00  0.436237D-03  0.157986D+00 -0.219723D+00  0.000000D+00
     16   0.000000D+00  0.779650D-01 -0.150749D-02 -0.452903D-03  0.000000D+00
                 6             7             8             9            10 
      1  -0.758247D+02 -0.757600D+02 -0.757578D+02 -0.757561D+02 -0.756723D+02
      2   0.150656D+00 -0.925997D+00  0.136747D+00  0.353719D+00  0.671797D+00
      3  -0.393926D-02  0.142528D-01  0.200921D+00 -0.347383D-01  0.501978D-02
      4   0.000000D+00  0.000000D+00  0.000000D+00  0.000000D+00  0.000000D+00
      5  -0.500512D-01  0.402053D+00 -0.609502D-01 -0.162789D+00 -0.260578D+00
      6   0.219418D-02 -0.801578D-02 -0.101280D+00  0.177383D-01 -0.245189D-02
      7   0.000000D+00  0.000000D+00  0.000000D+00  0.000000D+00  0.000000D+00
      8   0.000000D+00  0.000000D+00  0.000000D+00  0.000000D+00  0.000000D+00
      9   0.000000D+00  0.000000D+00  0.000000D+00  0.000000D+00  0.000000D+00
     10   0.170550D+00 -0.238288D+00 -0.921892D-02 -0.181663D+00 -0.626573D-01
     11  -0.715517D-03  0.187306D-01  0.229195D+00 -0.416720D-01 -0.409401D-04
     12  -0.140331D-02  0.323184D-02  0.874518D-01 -0.145681D-01  0.165119D-01
     13  -0.137187D-03  0.247423D-02  0.387588D-01 -0.663251D-02  0.438197D-02
     14   0.133114D+00 -0.550850D+00  0.600205D-01  0.714545D-01  0.529215D+00
     15   0.000000D+00  0.000000D+00  0.000000D+00  0.000000D+00  0.000000D+00
     16   0.000000D+00  0.000000D+00  0.000000D+00  0.000000D+00  0.000000D+00
                11            12            13            14            15 
      1  -0.756469D+02 -0.755724D+02 -0.754688D+02 -0.754552D+02 -0.753977D+02
      2  -0.112788D-01 -0.752330D-02  0.000000D+00  0.000000D+00 -0.191589D-02
      3  -0.499833D+00  0.566432D+00  0.000000D+00  0.000000D+00  0.827052D-03
      4   0.000000D+00  0.000000D+00  0.553047D-03  0.125964D-02  0.000000D+00
      5   0.371563D-02  0.317844D-02  0.000000D+00  0.000000D+00  0.692404D-03
      6   0.280019D+00 -0.312749D+00  0.000000D+00  0.000000D+00 -0.948802D-03
      7   0.000000D+00  0.000000D+00 -0.301793D-03 -0.887060D-03  0.000000D+00
      8   0.000000D+00  0.000000D+00 -0.644124D-03 -0.139494D-02  0.000000D+00
      9   0.000000D+00  0.000000D+00  0.442910D-01  0.242384D+00  0.000000D+00
     10   0.427296D-02  0.804357D-03  0.000000D+00  0.000000D+00 -0.364120D-01
     11  -0.101441D+01  0.118415D+01  0.000000D+00  0.000000D+00  0.316670D-02
     12  -0.252238D+00  0.816087D+00  0.000000D+00  0.000000D+00  0.232121D-02
     13  -0.153312D+00  0.351498D+00  0.000000D+00  0.000000D+00  0.120295D-02
     14  -0.134139D-01 -0.318031D-02  0.000000D+00  0.000000D+00  0.133323D-01
     15   0.000000D+00  0.000000D+00  0.744562D-01  0.431371D+00  0.000000D+00
     16   0.000000D+00  0.000000D+00  0.399434D-03  0.195884D-02  0.000000D+00

 Test job not archived.
 1\1\GINC-ROME043\SP\ULC-wHPBE TD-FC\def2SVP\H2O1(1-,2)\RDU230\01-Sep-2
 022\0\\#P LC-wHPBE/Def2SVP iop(3/107=0499400000, 3/108=0499400000) td=
 (50-50,nstates=15)\\H2 O1\\-1,2\O,0,0.,0.138187,0.\H,0,0.755435,-0.549
 339,0.\H,0,-0.755435,-0.556153,0.\\Version=AM64L-G16RevA.03\State=2-A'
 \HF=-76.1844331\S2=0.753512\S2-1=0.\S2A=0.750003\RMSD=9.795e-09\PG=CS 
 [SG(H2O1)]\\@


 WERE I TO AWAIT PERFECTION, MY BOOK WOULD NEVER BE FINISHED.
                                    -- HISTORY OF CHINESE WRITING

                                       TAI T'UNG, 13TH CENTURY
 Job cpu time:       0 days  0 hours  1 minutes 30.8 seconds.
 Elapsed time:       0 days  0 hours  0 minutes  6.1 seconds.
 File lengths (MBytes):  RWF=    136 Int=      0 D2E=      0 Chk=     16 Scr=     16
 Normal termination of Gaussian 16 at Thu Sep  1 11:56:49 2022.
