 Entering Gaussian System, Link 0=g16
 Input=/work/08504/tg878040/stampede2/d3tales/runfiles//05JNUA/gaussian/solv_acetonitrile/energy/cation2/energy_cation2.com
 Output=/work/08504/tg878040/stampede2/d3tales/runfiles//05JNUA/gaussian/solv_acetonitrile/energy/cation2/energy_cation2.log
 Initial command:
 /home1/apps/gaussian/16rA.03/g16/l1.exe "/tmp/Gau-237027.inp" -scrdir="/tmp/"
 Entering Link 1 = /home1/apps/gaussian/16rA.03/g16/l1.exe PID=    237029.
  
 Copyright (c) 1988,1990,1992,1993,1995,1998,2003,2009,2016,
            Gaussian, Inc.  All Rights Reserved.
  
 This is part of the Gaussian(R) 16 program.  It is based on
 the Gaussian(R) 09 system (copyright 2009, Gaussian, Inc.),
 the Gaussian(R) 03 system (copyright 2003, Gaussian, Inc.),
 the Gaussian(R) 98 system (copyright 1998, Gaussian, Inc.),
 the Gaussian(R) 94 system (copyright 1995, Gaussian, Inc.),
 the Gaussian 92(TM) system (copyright 1992, Gaussian, Inc.),
 the Gaussian 90(TM) system (copyright 1990, Gaussian, Inc.),
 the Gaussian 88(TM) system (copyright 1988, Gaussian, Inc.),
 the Gaussian 86(TM) system (copyright 1986, Carnegie Mellon
 University), and the Gaussian 82(TM) system (copyright 1983,
 Carnegie Mellon University). Gaussian is a federally registered
 trademark of Gaussian, Inc.
  
 This software contains proprietary and confidential information,
 including trade secrets, belonging to Gaussian, Inc.
  
 This software is provided under written license and may be
 used, copied, transmitted, or stored only in accord with that
 written license.
  
 The following legend is applicable only to US Government
 contracts under FAR:
  
                    RESTRICTED RIGHTS LEGEND
  
 Use, reproduction and disclosure by the US Government is
 subject to restrictions as set forth in subparagraphs (a)
 and (c) of the Commercial Computer Software - Restricted
 Rights clause in FAR 52.227-19.
  
 Gaussian, Inc.
 340 Quinnipiac St., Bldg. 40, Wallingford CT 06492
  
  
 ---------------------------------------------------------------
 Warning -- This program may not be used in any manner that
 competes with the business of Gaussian, Inc. or will provide
 assistance to any competitor of Gaussian, Inc.  The licensee
 of this program is prohibited from giving any competitor of
 Gaussian, Inc. access to this program.  By using this program,
 the user acknowledges that Gaussian, Inc. is engaged in the
 business of creating and licensing software in the field of
 computational chemistry and represents and warrants to the
 licensee that it is not a competitor of Gaussian, Inc. and that
 it will not use this program in any manner prohibited above.
 ---------------------------------------------------------------
  

 Cite this work as:
 Gaussian 16, Revision A.03,
 M. J. Frisch, G. W. Trucks, H. B. Schlegel, G. E. Scuseria, 
 M. A. Robb, J. R. Cheeseman, G. Scalmani, V. Barone, 
 G. A. Petersson, H. Nakatsuji, X. Li, M. Caricato, A. V. Marenich, 
 J. Bloino, B. G. Janesko, R. Gomperts, B. Mennucci, H. P. Hratchian, 
 J. V. Ortiz, A. F. Izmaylov, J. L. Sonnenberg, D. Williams-Young, 
 F. Ding, F. Lipparini, F. Egidi, J. Goings, B. Peng, A. Petrone, 
 T. Henderson, D. Ranasinghe, V. G. Zakrzewski, J. Gao, N. Rega, 
 G. Zheng, W. Liang, M. Hada, M. Ehara, K. Toyota, R. Fukuda, 
 J. Hasegawa, M. Ishida, T. Nakajima, Y. Honda, O. Kitao, H. Nakai, 
 T. Vreven, K. Throssell, J. A. Montgomery, Jr., J. E. Peralta, 
 F. Ogliaro, M. J. Bearpark, J. J. Heyd, E. N. Brothers, K. N. Kudin, 
 V. N. Staroverov, T. A. Keith, R. Kobayashi, J. Normand, 
 K. Raghavachari, A. P. Rendell, J. C. Burant, S. S. Iyengar, 
 J. Tomasi, M. Cossi, J. M. Millam, M. Klene, C. Adamo, R. Cammi, 
 J. W. Ochterski, R. L. Martin, K. Morokuma, O. Farkas, 
 J. B. Foresman, and D. J. Fox, Gaussian, Inc., Wallingford CT, 2016.
 
 ******************************************
 Gaussian 16:  ES64L-G16RevA.03 25-Dec-2016
                12-May-2022 
 ******************************************
 %chk=/work/08504/tg878040/stampede2/d3tales/runfiles//05JNUA/gaussian/solv_aceto
 nitrile/energy/cation2/energy_cation2.chk
 %mem=48GB
 %nprocshared=16
 Will use up to   16 processors via shared memory.
 ----------------------------------------------------------------------
 #P LC-wHPBE/Def2SVP SCRF=(PCM,Solvent=acetonitrile) iop(3/107=01566000
 00, 3/108=0156600000)
 ----------------------------------------------------------------------
 1/38=1,172=1/1;
 2/12=2,17=6,18=5,40=1/2;
 3/5=43,7=101,11=2,25=1,30=1,70=2201,72=2,74=-71,107=156600000,108=156600000/1,2,3;
 4//1;
 5/5=2,38=5,53=2/2;
 6/7=2,8=2,9=2,10=2,28=1/1;
 99/5=1,9=1/99;
 Leave Link    1 at Thu May 12 14:05:14 2022, MaxMem=  6442450944 cpu:               0.6 elap:               0.0
 (Enter /home1/apps/gaussian/16rA.03/g16/l101.exe)
 ----------
 H28 C36 N2
 ----------
 Symbolic Z-matrix:
 Charge =  1 Multiplicity = 2
 C                     7.11078   3.38658  -1.81304 
 C                     6.32106   3.5897   -0.70735 
 C                     5.66922   2.5698   -0.06526 
 C                     5.78047   1.24905  -0.51973 
 N                     5.00158   0.22747   0.07177 
 C                     5.55187  -0.94729   0.61684 
 C                     5.05989  -1.34025   1.88693 
 C                     5.53933  -2.48403   2.4802 
 C                     6.49154  -3.26757   1.87371 
 C                     6.98263  -2.91129   0.64865 
 C                     6.47673  -1.73384   0.05764 
 C                     3.54966   0.21483   0.04823 
 C                     2.72331   1.25455   0.29229 
 C                     1.32199   1.12036   0.24257 
 C                     0.74756  -0.08995  -0.06041 
 C                    -0.70945  -0.17062  -0.09843 
 C                    -1.37119  -1.30089   0.22662 
 C                    -2.77242  -1.31204   0.16776 
 C                    -3.50061  -0.23513  -0.20177 
 N                    -4.93252  -0.15684  -0.27655 
 C                    -5.48307   1.06625   0.28148 
 C                    -6.42456   1.82372  -0.30832 
 C                    -6.8954    2.97798   0.3378 
 C                    -6.39059   3.32272   1.56425 
 C                    -5.43375   2.53262   2.13814 
 C                    -4.94673   1.39712   1.54112 
 C                    -5.77832  -1.17573  -0.66934 
 C                    -5.76576  -2.42036  -0.07597 
 C                    -6.5263   -3.48658  -0.55359 
 C                    -7.33405  -3.35302  -1.64365 
 C                    -7.37556  -2.12839  -2.26167 
 C                    -6.62484  -1.09076  -1.78691 
 C                    -2.80778   0.94272  -0.54058 
 C                    -1.44187   0.93306  -0.47709 
 C                     1.56099  -1.1629   -0.31303 
 C                     2.92043  -1.0096   -0.25899 
 C                     6.58142   1.0894   -1.63182 
 C                     7.24046   2.10726  -2.28024 
 H                     7.63479   4.17251  -2.33544 
 H                     6.22819   4.62887  -0.34612 
 H                     5.09845   2.79825   0.84548 
 H                     4.31096  -0.7341    2.37598 
 H                     5.16985  -2.80286   3.46224 
 H                     6.86191  -4.16944   2.35404 
 H                     7.72921  -3.48232   0.12166 
 H                     6.91406  -1.52911  -0.91792 
 H                     3.12047   2.22696   0.52827 
 H                     0.74509   2.01322   0.45411 
 H                    -0.84337  -2.19267   0.52987 
 H                    -3.24464  -2.24912   0.42608 
 H                    -6.84836   1.62632  -1.248 
 H                    -7.65453   3.59763  -0.12656 
 H                    -6.78584   4.23225   2.03472 
 H                    -5.053     2.83175   3.11037 
 H                    -4.18991   0.78397   2.00931 
 H                    -5.21157  -2.62544   0.82664 
 H                    -6.49099  -4.45967  -0.06082 
 H                    -7.91612  -4.1909   -1.99791 
 H                    -8.01049  -2.00957  -3.12305 
 H                    -6.65605  -0.16695  -2.32097 
 H                    -3.38559   1.81374  -0.83919 
 H                    -0.92118   1.87299  -0.74891 
 H                     1.15363  -2.11883  -0.55186 
 H                     3.57491  -1.8633   -0.45996 
 H                     6.70124   0.09897  -2.10226 
 H                     7.85273   1.86874  -3.15419 
 
 ITRead=  0  0  0  0  0  0  0  0  0  0  0  0  0  0  0  0  0  0  0  0
 ITRead=  0  0  0  0  0  0  0  0  0  0  0  0  0  0  0  0  0  0  0  0
 ITRead=  0  0  0  0  0  0  0  0  0  0  0  0  0  0  0  0  0  0  0  0
 ITRead=  0  0  0  0  0  0
 MicOpt= -1 -1 -1 -1 -1 -1 -1 -1 -1 -1 -1 -1 -1 -1 -1 -1 -1 -1 -1 -1
 MicOpt= -1 -1 -1 -1 -1 -1 -1 -1 -1 -1 -1 -1 -1 -1 -1 -1 -1 -1 -1 -1
 MicOpt= -1 -1 -1 -1 -1 -1 -1 -1 -1 -1 -1 -1 -1 -1 -1 -1 -1 -1 -1 -1
 MicOpt= -1 -1 -1 -1 -1 -1
 NAtoms=     66 NQM=       66 NQMF=       0 NMMI=      0 NMMIF=      0
                NMic=       0 NMicF=      0.
                    Isotopes and Nuclear Properties:
 (Nuclear quadrupole moments (NQMom) in fm**2, nuclear magnetic moments (NMagM)
  in nuclear magnetons)

  Atom         1           2           3           4           5           6           7           8           9          10
 IAtWgt=          12          12          12          12          14          12          12          12          12          12
 AtmWgt=  12.0000000  12.0000000  12.0000000  12.0000000  14.0030740  12.0000000  12.0000000  12.0000000  12.0000000  12.0000000
 NucSpn=           0           0           0           0           2           0           0           0           0           0
 AtZEff=  -0.0000000  -0.0000000  -0.0000000  -0.0000000  -0.0000000  -0.0000000  -0.0000000  -0.0000000  -0.0000000  -0.0000000
 NQMom=    0.0000000   0.0000000   0.0000000   0.0000000   2.0440000   0.0000000   0.0000000   0.0000000   0.0000000   0.0000000
 NMagM=    0.0000000   0.0000000   0.0000000   0.0000000   0.4037610   0.0000000   0.0000000   0.0000000   0.0000000   0.0000000
 AtZNuc=   6.0000000   6.0000000   6.0000000   6.0000000   7.0000000   6.0000000   6.0000000   6.0000000   6.0000000   6.0000000

  Atom        11          12          13          14          15          16          17          18          19          20
 IAtWgt=          12          12          12          12          12          12          12          12          12          14
 AtmWgt=  12.0000000  12.0000000  12.0000000  12.0000000  12.0000000  12.0000000  12.0000000  12.0000000  12.0000000  14.0030740
 NucSpn=           0           0           0           0           0           0           0           0           0           2
 AtZEff=  -0.0000000  -0.0000000  -0.0000000  -0.0000000  -0.0000000  -0.0000000  -0.0000000  -0.0000000  -0.0000000  -0.0000000
 NQMom=    0.0000000   0.0000000   0.0000000   0.0000000   0.0000000   0.0000000   0.0000000   0.0000000   0.0000000   2.0440000
 NMagM=    0.0000000   0.0000000   0.0000000   0.0000000   0.0000000   0.0000000   0.0000000   0.0000000   0.0000000   0.4037610
 AtZNuc=   6.0000000   6.0000000   6.0000000   6.0000000   6.0000000   6.0000000   6.0000000   6.0000000   6.0000000   7.0000000

  Atom        21          22          23          24          25          26          27          28          29          30
 IAtWgt=          12          12          12          12          12          12          12          12          12          12
 AtmWgt=  12.0000000  12.0000000  12.0000000  12.0000000  12.0000000  12.0000000  12.0000000  12.0000000  12.0000000  12.0000000
 NucSpn=           0           0           0           0           0           0           0           0           0           0
 AtZEff=  -0.0000000  -0.0000000  -0.0000000  -0.0000000  -0.0000000  -0.0000000  -0.0000000  -0.0000000  -0.0000000  -0.0000000
 NQMom=    0.0000000   0.0000000   0.0000000   0.0000000   0.0000000   0.0000000   0.0000000   0.0000000   0.0000000   0.0000000
 NMagM=    0.0000000   0.0000000   0.0000000   0.0000000   0.0000000   0.0000000   0.0000000   0.0000000   0.0000000   0.0000000
 AtZNuc=   6.0000000   6.0000000   6.0000000   6.0000000   6.0000000   6.0000000   6.0000000   6.0000000   6.0000000   6.0000000

  Atom        31          32          33          34          35          36          37          38          39          40
 IAtWgt=          12          12          12          12          12          12          12          12           1           1
 AtmWgt=  12.0000000  12.0000000  12.0000000  12.0000000  12.0000000  12.0000000  12.0000000  12.0000000   1.0078250   1.0078250
 NucSpn=           0           0           0           0           0           0           0           0           1           1
 AtZEff=  -0.0000000  -0.0000000  -0.0000000  -0.0000000  -0.0000000  -0.0000000  -0.0000000  -0.0000000  -0.0000000  -0.0000000
 NQMom=    0.0000000   0.0000000   0.0000000   0.0000000   0.0000000   0.0000000   0.0000000   0.0000000   0.0000000   0.0000000
 NMagM=    0.0000000   0.0000000   0.0000000   0.0000000   0.0000000   0.0000000   0.0000000   0.0000000   2.7928460   2.7928460
 AtZNuc=   6.0000000   6.0000000   6.0000000   6.0000000   6.0000000   6.0000000   6.0000000   6.0000000   1.0000000   1.0000000

  Atom        41          42          43          44          45          46          47          48          49          50
 IAtWgt=           1           1           1           1           1           1           1           1           1           1
 AtmWgt=   1.0078250   1.0078250   1.0078250   1.0078250   1.0078250   1.0078250   1.0078250   1.0078250   1.0078250   1.0078250
 NucSpn=           1           1           1           1           1           1           1           1           1           1
 AtZEff=  -0.0000000  -0.0000000  -0.0000000  -0.0000000  -0.0000000  -0.0000000  -0.0000000  -0.0000000  -0.0000000  -0.0000000
 NQMom=    0.0000000   0.0000000   0.0000000   0.0000000   0.0000000   0.0000000   0.0000000   0.0000000   0.0000000   0.0000000
 NMagM=    2.7928460   2.7928460   2.7928460   2.7928460   2.7928460   2.7928460   2.7928460   2.7928460   2.7928460   2.7928460
 AtZNuc=   1.0000000   1.0000000   1.0000000   1.0000000   1.0000000   1.0000000   1.0000000   1.0000000   1.0000000   1.0000000

  Atom        51          52          53          54          55          56          57          58          59          60
 IAtWgt=           1           1           1           1           1           1           1           1           1           1
 AtmWgt=   1.0078250   1.0078250   1.0078250   1.0078250   1.0078250   1.0078250   1.0078250   1.0078250   1.0078250   1.0078250
 NucSpn=           1           1           1           1           1           1           1           1           1           1
 AtZEff=  -0.0000000  -0.0000000  -0.0000000  -0.0000000  -0.0000000  -0.0000000  -0.0000000  -0.0000000  -0.0000000  -0.0000000
 NQMom=    0.0000000   0.0000000   0.0000000   0.0000000   0.0000000   0.0000000   0.0000000   0.0000000   0.0000000   0.0000000
 NMagM=    2.7928460   2.7928460   2.7928460   2.7928460   2.7928460   2.7928460   2.7928460   2.7928460   2.7928460   2.7928460
 AtZNuc=   1.0000000   1.0000000   1.0000000   1.0000000   1.0000000   1.0000000   1.0000000   1.0000000   1.0000000   1.0000000

  Atom        61          62          63          64          65          66
 IAtWgt=           1           1           1           1           1           1
 AtmWgt=   1.0078250   1.0078250   1.0078250   1.0078250   1.0078250   1.0078250
 NucSpn=           1           1           1           1           1           1
 AtZEff=  -0.0000000  -0.0000000  -0.0000000  -0.0000000  -0.0000000  -0.0000000
 NQMom=    0.0000000   0.0000000   0.0000000   0.0000000   0.0000000   0.0000000
 NMagM=    2.7928460   2.7928460   2.7928460   2.7928460   2.7928460   2.7928460
 AtZNuc=   1.0000000   1.0000000   1.0000000   1.0000000   1.0000000   1.0000000
 Leave Link  101 at Thu May 12 14:05:14 2022, MaxMem=  6442450944 cpu:               1.6 elap:               0.1
 (Enter /home1/apps/gaussian/16rA.03/g16/l202.exe)
 Stoichiometry    C36H28N2(1+,2)
 Framework group  C1[X(C36H28N2)]
 Deg. of freedom   192
 Full point group                 C1      NOp   1
 Largest Abelian subgroup         C1      NOp   1
 Largest concise Abelian subgroup C1      NOp   1
                         Standard orientation:                         
 ---------------------------------------------------------------------
 Center     Atomic      Atomic             Coordinates (Angstroms)
 Number     Number       Type             X           Y           Z
 ---------------------------------------------------------------------
      1          6           0        7.177572    3.265919   -1.703552
      2          6           0        6.412349    3.432591   -0.574786
      3          6           0        5.740570    2.399285    0.023853
      4          6           0        5.804616    1.102050   -0.501862
      5          7           0        5.005000    0.073483    0.048446
      6          6           0        5.528418   -1.144322    0.520639
      7          6           0        5.045456   -1.590102    1.776670
      8          6           0        5.499782   -2.777499    2.299894
      9          6           0        6.418018   -3.554962    1.635908
     10          6           0        6.899707   -3.148162    0.422901
     11          6           0        6.419982   -1.926518   -0.095804
     12          6           0        3.553163    0.104545    0.050086
     13          6           0        2.762564    1.153415    0.363537
     14          6           0        1.357215    1.063070    0.331704
     15          6           0        0.741761   -0.112007   -0.024711
     16          6           0       -0.717435   -0.147929   -0.041039
     17          6           0       -1.407571   -1.274154    0.235381
     18          6           0       -2.809270   -1.241202    0.200937
     19          6           0       -3.510586   -0.125264   -0.098010
     20          7           0       -4.940514   -0.001287   -0.143067
     21          6           0       -5.444861    1.205771    0.488674
     22          6           0       -6.372543    2.020878   -0.043328
     23          6           0       -6.797876    3.152185    0.671303
     24          6           0       -6.263116    3.415940    1.905129
     25          6           0       -5.321328    2.568661    2.419250
     26          6           0       -4.878470    1.452982    1.754344
     27          6           0       -5.822864   -0.972569   -0.574191
     28          6           0       -5.838181   -2.246983   -0.047908
     29          6           0       -6.638124   -3.263468   -0.567752
     30          6           0       -7.459043   -3.048256   -1.634671
     31          6           0       -7.473656   -1.791630   -2.186099
     32          6           0       -6.684429   -0.803251   -1.670455
     33          6           0       -2.788174    1.048285   -0.386208
     34          6           0       -1.422325    0.995343   -0.347616
     35          6           0        1.518314   -1.193216   -0.348242
     36          6           0        2.882450   -1.082802   -0.310343
     37          6           0        6.582274    0.978782   -1.634910
     38          6           0        7.261082    2.010175   -2.240108
     39          1           0        7.716489    4.063022   -2.192810
     40          1           0        6.356679    4.453229   -0.157418
     41          1           0        5.191767    2.595277    0.955425
     42          1           0        4.323146   -0.989359    2.310390
     43          1           0        5.136826   -3.137462    3.270070
     44          1           0        6.768787   -4.491663    2.061124
     45          1           0        7.620117   -3.711753   -0.146785
     46          1           0        6.847418   -1.682759   -1.066767
     47          1           0        3.192599    2.099795    0.643607
     48          1           0        0.810971    1.959808    0.600478
     49          1           0       -0.902005   -2.195917    0.481531
     50          1           0       -3.305252   -2.176560    0.417606
     51          1           0       -6.817265    1.886478   -0.984468
     52          1           0       -7.545427    3.817692    0.254000
     53          1           0       -6.623114    4.310166    2.430081
     54          1           0       -4.916045    2.804115    3.399038
     55          1           0       -4.132974    0.793826    2.175861
     56          1           0       -5.275872   -2.516152    0.832575
     57          1           0       -6.624157   -4.262137   -0.127935
     58          1           0       -8.071740   -3.848622   -2.022419
     59          1           0       -8.118589   -1.608416   -3.028554
     60          1           0       -6.696449    0.148312   -2.154181
     61          1           0       -3.344250    1.950532   -0.627934
     62          1           0       -0.878035    1.932850   -0.578466
     63          1           0        1.078529   -2.122697   -0.630105
     64          1           0        3.507583   -1.943280   -0.567864
     65          1           0        6.664571    0.011849   -2.159215
     66          1           0        7.851652    1.800957   -3.136214
 ---------------------------------------------------------------------
 Rotational constants (GHZ):           0.1903162           0.0350134           0.0320485
 Leave Link  202 at Thu May 12 14:05:14 2022, MaxMem=  6442450944 cpu:               0.1 elap:               0.0
 (Enter /home1/apps/gaussian/16rA.03/g16/l301.exe)
 Standard basis: def2SVP (5D, 7F)
 Ernie: Thresh=  0.10000D-02 Tol=  0.10000D-05 Strict=F.
 There are   710 symmetry adapted cartesian basis functions of A   symmetry.
 There are   672 symmetry adapted basis functions of A   symmetry.
   672 basis functions,  1146 primitive gaussians,   710 cartesian basis functions
   129 alpha electrons      128 beta electrons
       nuclear repulsion energy      3549.0416117353 Hartrees.
 IExCor=33909 DFT=T Ex+Corr=LC-wHPBE ExCW=0 ScaHFX=  1.000000
 ScaDFX=  1.000000  1.000000  1.000000  1.000000 ScalE2=  1.000000  1.000000
 IRadAn=      5 IRanWt=     -1 IRanGd=            0 ICorTp=0 IEmpDi=  4
 HFx  wShort=  0.000000 wLong=  0.156600 cFull=  0.000000 cShort=  0.000000 cLong=  1.000000
 DFx  wShort=  0.000000 wLong=  0.156600 cFull=  0.000000 cShort=  1.000000 cLong=  0.000000
 NAtoms=   66 NActive=   66 NUniq=   66 SFac= 1.00D+00 NAtFMM=   60 NAOKFM=T Big=T
 Integral buffers will be    131072 words long.
 Raffenetti 2 integral format.
 Two-electron integral symmetry is turned on.
 ------------------------------------------------------------------------------
 Polarizable Continuum Model (PCM)
 =================================
 Model                : PCM.
 Atomic radii         : UFF (Universal Force Field).
 Polarization charges : Total charges.
 Charge compensation  : None.
 Solution method      : On-the-fly selection.
 Cavity type          : Scaled VdW (van der Waals Surface) (Alpha=1.100).
 Cavity algorithm     : GePol (No added spheres)
                        Default sphere list used, NSphG=   66.
                        Lebedev-Laikov grids with approx.  5.0 points / Ang**2.
                        Smoothing algorithm: York/Karplus (Gamma=1.0000).
                        Polarization charges: spherical gaussians, with
                                              point-specific exponents (IZeta= 3).
                        Self-potential: point-specific (ISelfS= 7).
                        Self-field    : sphere-specific E.n sum rule (ISelfD= 2).
 Solvent              : Acetonitrile, Eps=  35.688000 Eps(inf)=   1.806874
 ------------------------------------------------------------------------------
 GePol: Number of generator spheres                  =      66
 GePol: Total number of spheres                      =      66
 GePol: Number of exposed spheres                    =      66 (100.00%)
 GePol: Number of points                             =    4669
 GePol: Average weight of points                     =       0.13
 GePol: Minimum weight of points                     =   0.11D-09
 GePol: Maximum weight of points                     =    0.20577
 GePol: Number of points with low weight             =     336
 GePol: Fraction of low-weight points (<1% of avg)   =       7.20%
 GePol: Cavity surface area                          =    597.854 Ang**2
 GePol: Cavity volume                                =    682.735 Ang**3
 Leave Link  301 at Thu May 12 14:05:15 2022, MaxMem=  6442450944 cpu:               5.6 elap:               0.4
 (Enter /home1/apps/gaussian/16rA.03/g16/l302.exe)
 NPDir=0 NMtPBC=     1 NCelOv=     1 NCel=       1 NClECP=     1 NCelD=      1
         NCelK=      1 NCelE2=     1 NClLst=     1 CellRange=     0.0.
 One-electron integrals computed using PRISM.
 One-electron integral symmetry used in STVInt
   1 Symmetry operations used in ECPInt.
 ECPInt:  NShTT=   48828 NPrTT=  178484 LenC2=   33424 LenP2D=   78665.
 LDataN:  DoStor=T MaxTD1= 4 Len=   56
 NBasis=   672 RedAO= T EigKep=  1.92D-04  NBF=   672
 NBsUse=   672 1.00D-06 EigRej= -1.00D+00 NBFU=   672
 Precomputing XC quadrature grid using
 IXCGrd= 4 IRadAn=           5 IRanWt=          -1 IRanGd=           0 AccXCQ= 0.00D+00.
 Generated NRdTot=       0 NPtTot=           0 NUsed=           0 NTot=          32
 NSgBfM=   676   676   676   676   676 MxSgAt=    66 MxSgA2=    66.
 Leave Link  302 at Thu May 12 14:05:16 2022, MaxMem=  6442450944 cpu:              18.7 elap:               1.2
 (Enter /home1/apps/gaussian/16rA.03/g16/l303.exe)
 DipDrv:  MaxL=1.
 Leave Link  303 at Thu May 12 14:05:16 2022, MaxMem=  6442450944 cpu:               2.0 elap:               0.2
 (Enter /home1/apps/gaussian/16rA.03/g16/l401.exe)
 ExpMin= 1.22D-01 ExpMax= 1.71D+03 ExpMxC= 2.58D+02 IAcc=3 IRadAn=         5 AccDes= 0.00D+00
 Harris functional with IExCor=33909 and IRadAn=       5 diagonalized for initial guess.
 HarFok:  IExCor=33909 AccDes= 0.00D+00 IRadAn=         5 IDoV= 1 UseB2=F ITyADJ=14
 ICtDFT=  3500011 ScaDFX=  1.000000  1.000000  1.000000  1.000000
 FoFCou: FMM=F IPFlag=           0 FMFlag=      100000 FMFlg1=        2001
         NFxFlg=           0 DoJE=T BraDBF=F KetDBF=T FulRan=T
         wScrn=  0.000000 ICntrl=       500 IOpCl=  0 I1Cent=   200000004 NGrid=           0
         NMat0=    1 NMatS0=      1 NMatT0=    0 NMatD0=    1 NMtDS0=    0 NMtDT0=    0
 Petite list used in FoFCou.
 Harris En= -1473.72967142697    
 JPrj=0 DoOrth=F DoCkMO=F.
 Initial guess <Sx>= 0.0000 <Sy>= 0.0000 <Sz>= 0.5000 <S**2>= 0.7500 S= 0.5000
 Leave Link  401 at Thu May 12 14:05:20 2022, MaxMem=  6442450944 cpu:              52.9 elap:               3.3
 (Enter /home1/apps/gaussian/16rA.03/g16/l502.exe)
 Integral symmetry usage will be decided dynamically.
 UHF open shell SCF:
 Using DIIS extrapolation, IDIIS=  1040.
 NGot=  6442450944 LenX=  6441424054 LenY=  6440919244
 Requested convergence on RMS density matrix=1.00D-08 within 128 cycles.
 Requested convergence on MAX density matrix=1.00D-06.
 Requested convergence on             energy=1.00D-06.
 No special actions if energy rises.
 Fock matrices will be formed incrementally for  20 cycles.

 Cycle   1  Pass 1  IDiag  1:
 FoFJK:  IHMeth= 1 ICntrl=       0 DoSepK=T KAlg= 0 I1Cent=           0 FoldK=F
 IRaf=         1 NMat=       1 IRICut=       1 DoRegI=T DoRafI=F ISym2E= 0 IDoP0=0 IntGTp=1.
 FoFCou: FMM=T IPFlag=           0 FMFlag=      100000 FMFlg1=        2001
         NFxFlg=           0 DoJE=T BraDBF=F KetDBF=F FulRan=T
         wScrn=  0.000000 ICntrl=       500 IOpCl=  0 I1Cent=           0 NGrid=           0
         NMat0=    1 NMatS0=      1 NMatT0=    0 NMatD0=    1 NMtDS0=    0 NMtDT0=    0
 Symmetry not used in FoFCou.
 FMM levels:  10  Number of levels for PrismC:   9
 Inv3:  Mode=1 IEnd=    65398683.
 Iteration    1 A*A^-1 deviation from unit magnitude is 3.33D-15 for    215.
 Iteration    1 A*A^-1 deviation from orthogonality  is 2.24D-15 for    822    609.
 Iteration    1 A^-1*A deviation from unit magnitude is 3.66D-15 for   1992.
 Iteration    1 A^-1*A deviation from orthogonality  is 2.13D-15 for   4638   3442.
 E= -1494.79084038061    
 DIIS: error= 1.98D-02 at cycle   1 NSaved=   1.
 NSaved= 1 IEnMin= 1 EnMin= -1494.79084038061     IErMin= 1 ErrMin= 1.98D-02
 ErrMax= 1.98D-02  0.00D+00 EMaxC= 1.00D-01 BMatC= 2.03D+00 BMatP= 2.03D+00
 IDIUse=3 WtCom= 8.02D-01 WtEn= 1.98D-01
 Coeff-Com:  0.100D+01
 Coeff-En:   0.100D+01
 Coeff:      0.100D+01
 Gap=     0.322 Goal=   None    Shift=    0.000
 Gap=     0.089 Goal=   None    Shift=    0.000
 GapD=    0.089 DampG=0.500 DampE=0.500 DampFc=0.2500 IDamp=-1.
 Damping current iteration by 2.50D-01
 RMSDP=2.84D-03 MaxDP=1.14D-01              OVMax= 1.92D-01

 Cycle   2  Pass 1  IDiag  1:
 RMSU=  6.63D-04    CP:  9.83D-01
 E= -1494.99807174355     Delta-E=       -0.207231362946 Rises=F Damp=T
 DIIS: error= 1.15D-02 at cycle   2 NSaved=   2.
 NSaved= 2 IEnMin= 2 EnMin= -1494.99807174355     IErMin= 2 ErrMin= 1.15D-02
 ErrMax= 1.15D-02  0.00D+00 EMaxC= 1.00D-01 BMatC= 5.31D-01 BMatP= 2.03D+00
 IDIUse=3 WtCom= 8.85D-01 WtEn= 1.15D-01
 Coeff-Com: -0.800D+00 0.180D+01
 Coeff-En:   0.000D+00 0.100D+01
 Coeff:     -0.707D+00 0.171D+01
 Gap=     0.278 Goal=   None    Shift=    0.000
 Gap=     0.105 Goal=   None    Shift=    0.000
 RMSDP=1.19D-03 MaxDP=3.85D-02 DE=-2.07D-01 OVMax= 2.08D-01

 Cycle   3  Pass 1  IDiag  1:
 RMSU=  8.19D-04    CP:  9.50D-01  2.08D+00
 E= -1495.35151187723     Delta-E=       -0.353440133673 Rises=F Damp=F
 DIIS: error= 5.04D-03 at cycle   3 NSaved=   3.
 NSaved= 3 IEnMin= 3 EnMin= -1495.35151187723     IErMin= 3 ErrMin= 5.04D-03
 ErrMax= 5.04D-03  0.00D+00 EMaxC= 1.00D-01 BMatC= 1.12D-01 BMatP= 5.31D-01
 IDIUse=3 WtCom= 9.50D-01 WtEn= 5.04D-02
 Coeff-Com: -0.403D+00 0.847D+00 0.556D+00
 Coeff-En:   0.000D+00 0.000D+00 0.100D+01
 Coeff:     -0.383D+00 0.804D+00 0.579D+00
 Gap=     0.264 Goal=   None    Shift=    0.000
 Gap=     0.086 Goal=   None    Shift=    0.000
 RMSDP=3.80D-04 MaxDP=3.35D-02 DE=-3.53D-01 OVMax= 6.53D-02

 Cycle   4  Pass 1  IDiag  1:
 RMSU=  2.46D-04    CP:  9.54D-01  2.15D+00  6.60D-01
 E= -1495.37869162814     Delta-E=       -0.027179750911 Rises=F Damp=F
 DIIS: error= 1.66D-03 at cycle   4 NSaved=   4.
 NSaved= 4 IEnMin= 4 EnMin= -1495.37869162814     IErMin= 4 ErrMin= 1.66D-03
 ErrMax= 1.66D-03  0.00D+00 EMaxC= 1.00D-01 BMatC= 1.09D-02 BMatP= 1.12D-01
 IDIUse=3 WtCom= 9.83D-01 WtEn= 1.66D-02
 Coeff-Com: -0.578D-01 0.138D+00 0.260D+00 0.659D+00
 Coeff-En:   0.000D+00 0.000D+00 0.000D+00 0.100D+01
 Coeff:     -0.568D-01 0.136D+00 0.256D+00 0.665D+00
 Gap=     0.256 Goal=   None    Shift=    0.000
 Gap=     0.087 Goal=   None    Shift=    0.000
 RMSDP=1.06D-04 MaxDP=1.01D-02 DE=-2.72D-02 OVMax= 2.14D-02

 Cycle   5  Pass 1  IDiag  1:
 RMSU=  6.60D-05    CP:  9.54D-01  2.10D+00  7.31D-01  7.90D-01
 E= -1495.38133109288     Delta-E=       -0.002639464745 Rises=F Damp=F
 DIIS: error= 4.82D-04 at cycle   5 NSaved=   5.
 NSaved= 5 IEnMin= 5 EnMin= -1495.38133109288     IErMin= 5 ErrMin= 4.82D-04
 ErrMax= 4.82D-04  0.00D+00 EMaxC= 1.00D-01 BMatC= 6.15D-04 BMatP= 1.09D-02
 IDIUse=3 WtCom= 9.95D-01 WtEn= 4.82D-03
 Coeff-Com:  0.351D-02 0.332D-02 0.830D-01 0.285D+00 0.625D+00
 Coeff-En:   0.000D+00 0.000D+00 0.000D+00 0.000D+00 0.100D+01
 Coeff:      0.349D-02 0.330D-02 0.826D-01 0.284D+00 0.627D+00
 Gap=     0.256 Goal=   None    Shift=    0.000
 Gap=     0.089 Goal=   None    Shift=    0.000
 RMSDP=3.44D-05 MaxDP=2.66D-03 DE=-2.64D-03 OVMax= 1.20D-02

 Cycle   6  Pass 1  IDiag  1:
 RMSU=  3.22D-05    CP:  9.54D-01  2.10D+00  7.38D-01  8.21D-01  9.00D-01
 E= -1495.38155000454     Delta-E=       -0.000218911654 Rises=F Damp=F
 DIIS: error= 1.98D-04 at cycle   6 NSaved=   6.
 NSaved= 6 IEnMin= 6 EnMin= -1495.38155000454     IErMin= 6 ErrMin= 1.98D-04
 ErrMax= 1.98D-04  0.00D+00 EMaxC= 1.00D-01 BMatC= 1.18D-04 BMatP= 6.15D-04
 IDIUse=3 WtCom= 9.98D-01 WtEn= 1.98D-03
 Coeff-Com:  0.985D-02-0.168D-01 0.244D-02 0.131D-01 0.280D+00 0.711D+00
 Coeff-En:   0.000D+00 0.000D+00 0.000D+00 0.000D+00 0.000D+00 0.100D+01
 Coeff:      0.983D-02-0.168D-01 0.244D-02 0.131D-01 0.280D+00 0.712D+00
 Gap=     0.256 Goal=   None    Shift=    0.000
 Gap=     0.090 Goal=   None    Shift=    0.000
 RMSDP=2.14D-05 MaxDP=1.94D-03 DE=-2.19D-04 OVMax= 1.09D-02

 Cycle   7  Pass 1  IDiag  1:
 RMSU=  1.48D-05    CP:  9.54D-01  2.10D+00  7.45D-01  8.33D-01  1.10D+00
                    CP:  1.15D+00
 E= -1495.38163396045     Delta-E=       -0.000083955916 Rises=F Damp=F
 DIIS: error= 1.33D-04 at cycle   7 NSaved=   7.
 NSaved= 7 IEnMin= 7 EnMin= -1495.38163396045     IErMin= 7 ErrMin= 1.33D-04
 ErrMax= 1.33D-04  0.00D+00 EMaxC= 1.00D-01 BMatC= 4.78D-05 BMatP= 1.18D-04
 IDIUse=3 WtCom= 9.99D-01 WtEn= 1.33D-03
 Coeff-Com:  0.626D-02-0.117D-01-0.976D-02-0.387D-01 0.830D-01 0.447D+00
 Coeff-Com:  0.524D+00
 Coeff-En:   0.000D+00 0.000D+00 0.000D+00 0.000D+00 0.000D+00 0.000D+00
 Coeff-En:   0.100D+01
 Coeff:      0.625D-02-0.117D-01-0.975D-02-0.386D-01 0.829D-01 0.446D+00
 Coeff:      0.525D+00
 Gap=     0.256 Goal=   None    Shift=    0.000
 Gap=     0.091 Goal=   None    Shift=    0.000
 RMSDP=1.17D-05 MaxDP=6.61D-04 DE=-8.40D-05 OVMax= 4.85D-03

 Cycle   8  Pass 1  IDiag  1:
 RMSU=  6.95D-06    CP:  9.54D-01  2.10D+00  7.47D-01  8.41D-01  1.18D+00
                    CP:  1.36D+00  1.24D+00
 E= -1495.38167046878     Delta-E=       -0.000036508321 Rises=F Damp=F
 DIIS: error= 1.61D-04 at cycle   8 NSaved=   8.
 NSaved= 8 IEnMin= 8 EnMin= -1495.38167046878     IErMin= 7 ErrMin= 1.33D-04
 ErrMax= 1.61D-04  0.00D+00 EMaxC= 1.00D-01 BMatC= 1.01D-05 BMatP= 4.78D-05
 IDIUse=3 WtCom= 9.99D-01 WtEn= 1.33D-03
 Coeff-Com: -0.165D-03-0.143D-03-0.673D-02-0.346D-01-0.830D-01-0.399D-01
 Coeff-Com: -0.444D-01 0.121D+01
 Coeff-En:   0.000D+00 0.000D+00 0.000D+00 0.000D+00 0.000D+00 0.000D+00
 Coeff-En:   0.000D+00 0.100D+01
 Coeff:     -0.165D-03-0.143D-03-0.672D-02-0.345D-01-0.829D-01-0.399D-01
 Coeff:     -0.444D-01 0.121D+01
 Gap=     0.256 Goal=   None    Shift=    0.000
 Gap=     0.092 Goal=   None    Shift=    0.000
 RMSDP=2.16D-05 MaxDP=2.24D-03 DE=-3.65D-05 OVMax= 1.48D-02

 Cycle   9  Pass 1  IDiag  1:
 RMSU=  8.31D-06    CP:  9.54D-01  2.10D+00  7.49D-01  8.50D-01  1.31D+00
                    CP:  1.67D+00  2.10D+00  2.05D+00
 E= -1495.38171715514     Delta-E=       -0.000046686364 Rises=F Damp=F
 DIIS: error= 1.27D-04 at cycle   9 NSaved=   9.
 NSaved= 9 IEnMin= 9 EnMin= -1495.38171715514     IErMin= 9 ErrMin= 1.27D-04
 ErrMax= 1.27D-04  0.00D+00 EMaxC= 1.00D-01 BMatC= 2.39D-05 BMatP= 1.01D-05
 IDIUse=3 WtCom= 9.99D-01 WtEn= 1.33D-03
 Coeff-Com: -0.671D-03 0.105D-02-0.270D-02-0.174D-01-0.592D-01-0.486D-01
 Coeff-Com: -0.284D+00 0.107D+01 0.339D+00
 Coeff-En:   0.000D+00 0.000D+00 0.000D+00 0.000D+00 0.000D+00 0.000D+00
 Coeff-En:   0.000D+00 0.000D+00 0.100D+01
 Coeff:     -0.670D-03 0.105D-02-0.270D-02-0.174D-01-0.591D-01-0.486D-01
 Coeff:     -0.284D+00 0.107D+01 0.340D+00
 Gap=     0.255 Goal=   None    Shift=    0.000
 Gap=     0.092 Goal=   None    Shift=    0.000
 RMSDP=7.30D-06 MaxDP=6.77D-04 DE=-4.67D-05 OVMax= 4.99D-03

 Cycle  10  Pass 1  IDiag  1:
 RMSU=  2.13D-06    CP:  9.54D-01  2.10D+00  7.50D-01  8.52D-01  1.34D+00
                    CP:  1.75D+00  2.37D+00  2.59D+00  1.33D+00
 E= -1495.38173312149     Delta-E=       -0.000015966349 Rises=F Damp=F
 DIIS: error= 1.33D-04 at cycle  10 NSaved=  10.
 NSaved=10 IEnMin=10 EnMin= -1495.38173312149     IErMin= 9 ErrMin= 1.27D-04
 ErrMax= 1.33D-04  0.00D+00 EMaxC= 1.00D-01 BMatC= 1.86D-05 BMatP= 1.01D-05
 IDIUse=3 WtCom= 9.99D-01 WtEn= 1.33D-03
 Coeff-Com: -0.182D-03 0.407D-03 0.743D-03 0.796D-03-0.858D-02 0.311D-01
 Coeff-Com: -0.456D+00 0.686D+00-0.579D+00 0.132D+01
 Coeff-En:   0.000D+00 0.000D+00 0.000D+00 0.000D+00 0.000D+00 0.000D+00
 Coeff-En:   0.000D+00 0.000D+00 0.000D+00 0.100D+01
 Coeff:     -0.182D-03 0.406D-03 0.742D-03 0.795D-03-0.857D-02 0.311D-01
 Coeff:     -0.455D+00 0.685D+00-0.578D+00 0.132D+01
 Gap=     0.255 Goal=   None    Shift=    0.000
 Gap=     0.092 Goal=   None    Shift=    0.000
 RMSDP=1.53D-05 MaxDP=1.60D-03 DE=-1.60D-05 OVMax= 1.15D-02

 Cycle  11  Pass 1  IDiag  1:
 RMSU=  5.36D-06    CP:  9.54D-01  2.10D+00  7.50D-01  8.55D-01  1.39D+00
                    CP:  1.88D+00  2.92D+00  3.00D+00  2.25D+00  2.79D+00
 E= -1495.38176452098     Delta-E=       -0.000031399494 Rises=F Damp=F
 DIIS: error= 1.38D-04 at cycle  11 NSaved=  11.
 NSaved=11 IEnMin=11 EnMin= -1495.38176452098     IErMin= 9 ErrMin= 1.27D-04
 ErrMax= 1.38D-04  0.00D+00 EMaxC= 1.00D-01 BMatC= 2.22D-05 BMatP= 1.01D-05
 IDIUse=3 WtCom= 9.99D-01 WtEn= 1.33D-03
 Coeff-Com: -0.608D-03 0.128D-02 0.298D-02 0.871D-02 0.322D-02 0.588D-03
 Coeff-Com: -0.595D+00 0.634D+00-0.466D-01 0.217D+01-0.118D+01
 Coeff-En:   0.000D+00 0.000D+00 0.000D+00 0.000D+00 0.000D+00 0.000D+00
 Coeff-En:   0.000D+00 0.000D+00 0.000D+00 0.000D+00 0.100D+01
 Coeff:     -0.607D-03 0.128D-02 0.298D-02 0.869D-02 0.321D-02 0.587D-03
 Coeff:     -0.594D+00 0.633D+00-0.466D-01 0.217D+01-0.118D+01
 Gap=     0.255 Goal=   None    Shift=    0.000
 Gap=     0.092 Goal=   None    Shift=    0.000
 RMSDP=1.66D-05 MaxDP=1.68D-03 DE=-3.14D-05 OVMax= 1.26D-02

 Cycle  12  Pass 1  IDiag  1:
 RMSU=  1.30D-06    CP:  9.54D-01  2.10D+00  7.50D-01  8.53D-01  1.35D+00
                    CP:  1.77D+00  2.37D+00  2.53D+00  1.18D+00  1.88D-01
                    CP: -7.88D-02
 E= -1495.38173103955     Delta-E=        0.000033481430 Rises=F Damp=F
 DIIS: error= 1.28D-04 at cycle  12 NSaved=  12.
 NSaved=12 IEnMin=11 EnMin= -1495.38176452098     IErMin= 9 ErrMin= 1.27D-04
 ErrMax= 1.28D-04  0.00D+00 EMaxC= 1.00D-01 BMatC= 1.95D-05 BMatP= 1.01D-05
 IDIUse=3 WtCom= 9.99D-01 WtEn= 1.33D-03
 Rare condition: small coef for last iteration:  0.000D+00
 Coeff-Com: -0.501D-03 0.153D-02 0.956D-02 0.369D-01 0.822D-01 0.335D-01
 Coeff-Com: -0.867D+00 0.359D-01-0.738D-01 0.397D+01-0.550D+01 0.327D+01
 Coeff-En:   0.000D+00 0.000D+00 0.000D+00 0.000D+00 0.000D+00 0.000D+00
 Coeff-En:   0.000D+00 0.000D+00 0.000D+00 0.000D+00 0.000D+00 0.100D+01
 Coeff:     -0.501D-03 0.153D-02 0.956D-02 0.369D-01 0.822D-01 0.335D-01
 Coeff:     -0.867D+00 0.359D-01-0.738D-01 0.397D+01-0.550D+01 0.327D+01
 Gap=     0.256 Goal=   None    Shift=    0.000
 Gap=     0.092 Goal=   None    Shift=    0.000
 RMSDP=5.76D-05 MaxDP=5.83D-03 DE= 3.35D-05 OVMax= 4.37D-02

 Cycle  13  Pass 1  IDiag  1:
 RMSU=  1.82D-05    CP:  9.54D-01  2.10D+00  7.49D-01  8.47D-01  1.23D+00
                    CP:  1.40D+00  5.47D-01 -1.40D+00 -2.61D+00 -3.00D+00
                    CP: -1.18D+00  3.00D+00
 E= -1495.38163721774     Delta-E=        0.000093821810 Rises=F Damp=F
 DIIS: error= 9.07D-05 at cycle  13 NSaved=  13.
 NSaved=13 IEnMin=11 EnMin= -1495.38176452098     IErMin=13 ErrMin= 9.07D-05
 ErrMax= 9.07D-05  0.00D+00 EMaxC= 1.00D-01 BMatC= 9.56D-06 BMatP= 1.01D-05
 IDIUse=1 WtCom= 1.00D+00 WtEn= 0.00D+00
 Coeff-Com:  0.151D-02-0.251D-02-0.771D-03-0.147D-02 0.340D-01 0.112D+00
 Coeff-Com:  0.804D-01-0.955D-01-0.114D+01-0.717D+00-0.815D+00 0.116D+01
 Coeff-Com:  0.238D+01
 Coeff:      0.151D-02-0.251D-02-0.771D-03-0.147D-02 0.340D-01 0.112D+00
 Coeff:      0.804D-01-0.955D-01-0.114D+01-0.717D+00-0.815D+00 0.116D+01
 Coeff:      0.238D+01
 Gap=     0.256 Goal=   None    Shift=    0.000
 Gap=     0.093 Goal=   None    Shift=    0.000
 RMSDP=9.05D-05 MaxDP=9.29D-03 DE= 9.38D-05 OVMax= 6.85D-02

 Cycle  14  Pass 1  IDiag  1:
 RMSU=  5.64D-05    CP:  9.54D-01  2.10D+00  7.47D-01  8.37D-01  1.04D+00
                    CP:  8.36D-01 -2.21D+00 -3.00D+00 -3.00D+00 -3.00D+00
                    CP: -3.00D+00  3.00D+00  2.83D+00
 E= -1495.38155754325     Delta-E=        0.000079674494 Rises=F Damp=F
 DIIS: error= 3.40D-05 at cycle  14 NSaved=  14.
 NSaved=14 IEnMin=11 EnMin= -1495.38176452098     IErMin=14 ErrMin= 3.40D-05
 ErrMax= 3.40D-05  0.00D+00 EMaxC= 1.00D-01 BMatC= 2.61D-06 BMatP= 9.56D-06
 IDIUse=1 WtCom= 1.00D+00 WtEn= 0.00D+00
 Coeff-Com:  0.113D-02-0.196D-02-0.301D-02-0.126D-01-0.107D-01 0.651D-01
 Coeff-Com:  0.254D+00 0.100D+00-0.606D+00-0.124D+01 0.669D+00-0.190D+00
 Coeff-Com:  0.117D+01 0.804D+00
 Coeff:      0.113D-02-0.196D-02-0.301D-02-0.126D-01-0.107D-01 0.651D-01
 Coeff:      0.254D+00 0.100D+00-0.606D+00-0.124D+01 0.669D+00-0.190D+00
 Coeff:      0.117D+01 0.804D+00
 Gap=     0.254 Goal=   None    Shift=    0.000
 Gap=     0.093 Goal=   None    Shift=    0.000
 RMSDP=3.56D-05 MaxDP=3.62D-03 DE= 7.97D-05 OVMax= 2.70D-02

 Cycle  15  Pass 1  IDiag  1:
 RMSU=  1.12D-05    CP:  9.54D-01  2.10D+00  7.46D-01  8.31D-01  9.43D-01
                    CP:  5.92D-01 -3.00D+00 -3.00D+00 -3.00D+00 -3.00D+00
                    CP: -3.00D+00  3.00D+00  3.00D+00  1.48D+00
 E= -1495.38154871028     Delta-E=        0.000008832971 Rises=F Damp=F
 DIIS: error= 2.18D-05 at cycle  15 NSaved=  15.
 NSaved=15 IEnMin=11 EnMin= -1495.38176452098     IErMin=15 ErrMin= 2.18D-05
 ErrMax= 2.18D-05  0.00D+00 EMaxC= 1.00D-01 BMatC= 6.34D-07 BMatP= 2.61D-06
 IDIUse=1 WtCom= 1.00D+00 WtEn= 0.00D+00
 Coeff-Com:  0.787D-05 0.266D-04-0.677D-03-0.437D-02-0.210D-01-0.309D-02
 Coeff-Com:  0.341D-01 0.165D+00 0.128D+00 0.137D+00 0.699D-01-0.225D+00
 Coeff-Com: -0.548D+00 0.218D+00 0.105D+01
 Coeff:      0.787D-05 0.266D-04-0.677D-03-0.437D-02-0.210D-01-0.309D-02
 Coeff:      0.341D-01 0.165D+00 0.128D+00 0.137D+00 0.699D-01-0.225D+00
 Coeff:     -0.548D+00 0.218D+00 0.105D+01
 Gap=     0.254 Goal=   None    Shift=    0.000
 Gap=     0.092 Goal=   None    Shift=    0.000
 RMSDP=1.33D-05 MaxDP=1.33D-03 DE= 8.83D-06 OVMax= 1.01D-02

 Cycle  16  Pass 1  IDiag  1:
 RMSU=  4.79D-06    CP:  9.54D-01  2.10D+00  7.45D-01  8.28D-01  8.92D-01
                    CP:  4.83D-01 -3.00D+00 -3.00D+00 -3.00D+00 -3.00D+00
                    CP: -3.00D+00  3.00D+00  3.00D+00  1.65D+00  1.55D+00
 E= -1495.38154888275     Delta-E=       -0.000000172473 Rises=F Damp=F
 DIIS: error= 6.53D-06 at cycle  16 NSaved=  16.
 NSaved=16 IEnMin=11 EnMin= -1495.38176452098     IErMin=16 ErrMin= 6.53D-06
 ErrMax= 6.53D-06  0.00D+00 EMaxC= 1.00D-01 BMatC= 9.83D-08 BMatP= 6.34D-07
 IDIUse=1 WtCom= 1.00D+00 WtEn= 0.00D+00
 Coeff-Com: -0.513D-04 0.106D-03 0.127D-03-0.413D-04-0.377D-02-0.607D-02
 Coeff-Com: -0.148D-01 0.217D-01 0.645D-01 0.111D+00 0.674D-01-0.492D-01
 Coeff-Com: -0.234D+00-0.436D-01 0.198D+00 0.890D+00
 Coeff:     -0.513D-04 0.106D-03 0.127D-03-0.413D-04-0.377D-02-0.607D-02
 Coeff:     -0.148D-01 0.217D-01 0.645D-01 0.111D+00 0.674D-01-0.492D-01
 Coeff:     -0.234D+00-0.436D-01 0.198D+00 0.890D+00
 Gap=     0.254 Goal=   None    Shift=    0.000
 Gap=     0.092 Goal=   None    Shift=    0.000
 RMSDP=6.69D-06 MaxDP=6.82D-04 DE=-1.72D-07 OVMax= 5.08D-03

 Cycle  17  Pass 1  IDiag  1:
 RMSU=  1.36D-06    CP:  9.54D-01  2.10D+00  7.45D-01  8.28D-01  9.05D-01
                    CP:  5.21D-01 -3.00D+00 -3.00D+00 -3.00D+00 -3.00D+00
                    CP: -3.00D+00  3.00D+00  3.00D+00  1.56D+00  1.24D+00
                    CP:  7.13D-01
 E= -1495.38154898151     Delta-E=       -0.000000098757 Rises=F Damp=F
 DIIS: error= 4.54D-06 at cycle  17 NSaved=  17.
 NSaved=17 IEnMin=11 EnMin= -1495.38176452098     IErMin=17 ErrMin= 4.54D-06
 ErrMax= 4.54D-06  0.00D+00 EMaxC= 1.00D-01 BMatC= 3.86D-08 BMatP= 9.83D-08
 IDIUse=1 WtCom= 1.00D+00 WtEn= 0.00D+00
 Coeff-Com: -0.136D-04 0.221D-04 0.235D-03 0.829D-03 0.397D-02-0.523D-02
 Coeff-Com: -0.120D-01-0.449D-01 0.119D-01-0.544D-01 0.126D+00-0.393D-01
 Coeff-Com:  0.270D-01-0.549D-01-0.199D+00 0.327D+00 0.913D+00
 Coeff:     -0.136D-04 0.221D-04 0.235D-03 0.829D-03 0.397D-02-0.523D-02
 Coeff:     -0.120D-01-0.449D-01 0.119D-01-0.544D-01 0.126D+00-0.393D-01
 Coeff:      0.270D-01-0.549D-01-0.199D+00 0.327D+00 0.913D+00
 Gap=     0.254 Goal=   None    Shift=    0.000
 Gap=     0.092 Goal=   None    Shift=    0.000
 RMSDP=1.37D-06 MaxDP=1.20D-04 DE=-9.88D-08 OVMax= 9.10D-04

 Cycle  18  Pass 1  IDiag  1:
 RMSU=  4.66D-07    CP:  9.54D-01  2.10D+00  7.45D-01  8.28D-01  9.05D-01
                    CP:  5.17D-01 -3.00D+00 -3.00D+00 -3.00D+00 -3.00D+00
                    CP: -3.00D+00  3.00D+00  3.00D+00  1.57D+00  1.31D+00
                    CP:  7.44D-01  1.14D+00
 E= -1495.38154900239     Delta-E=       -0.000000020881 Rises=F Damp=F
 DIIS: error= 1.87D-06 at cycle  18 NSaved=  18.
 NSaved=18 IEnMin=11 EnMin= -1495.38176452098     IErMin=18 ErrMin= 1.87D-06
 ErrMax= 1.87D-06  0.00D+00 EMaxC= 1.00D-01 BMatC= 9.93D-09 BMatP= 3.86D-08
 IDIUse=1 WtCom= 1.00D+00 WtEn= 0.00D+00
 Coeff-Com: -0.137D-04 0.204D-04 0.776D-04 0.367D-03 0.137D-02-0.129D-02
 Coeff-Com: -0.724D-02-0.127D-01-0.118D-01-0.284D-02 0.100D-01-0.478D-02
 Coeff-Com:  0.243D-01-0.132D-01-0.576D-01-0.439D-01 0.190D+00 0.929D+00
 Coeff:     -0.137D-04 0.204D-04 0.776D-04 0.367D-03 0.137D-02-0.129D-02
 Coeff:     -0.724D-02-0.127D-01-0.118D-01-0.284D-02 0.100D-01-0.478D-02
 Coeff:      0.243D-01-0.132D-01-0.576D-01-0.439D-01 0.190D+00 0.929D+00
 Gap=     0.254 Goal=   None    Shift=    0.000
 Gap=     0.092 Goal=   None    Shift=    0.000
 RMSDP=2.10D-06 MaxDP=2.07D-04 DE=-2.09D-08 OVMax= 1.58D-03

 Cycle  19  Pass 1  IDiag  1:
 RMSU=  1.66D-07    CP:  9.54D-01  2.10D+00  7.45D-01  8.28D-01  9.01D-01
                    CP:  5.05D-01 -3.00D+00 -3.00D+00 -3.00D+00 -3.00D+00
                    CP: -3.00D+00  3.00D+00  3.00D+00  1.60D+00  1.41D+00
                    CP:  8.34D-01  1.03D+00  1.54D+00
 E= -1495.38154899123     Delta-E=        0.000000011161 Rises=F Damp=F
 DIIS: error= 1.43D-06 at cycle  19 NSaved=  19.
 NSaved=19 IEnMin=11 EnMin= -1495.38176452098     IErMin=19 ErrMin= 1.43D-06
 ErrMax= 1.43D-06  0.00D+00 EMaxC= 1.00D-01 BMatC= 4.91D-09 BMatP= 9.93D-09
 IDIUse=1 WtCom= 1.00D+00 WtEn= 0.00D+00
 Coeff-Com: -0.526D-05 0.300D-05-0.329D-04 0.159D-03-0.876D-04 0.289D-02
 Coeff-Com: -0.703D-03 0.567D-02-0.327D-01 0.364D-01-0.740D-01 0.455D-01
 Coeff-Com:  0.302D-01-0.324D-02 0.760D-02-0.879D-01-0.257D+00 0.339D+00
 Coeff-Com:  0.988D+00
 Coeff:     -0.526D-05 0.300D-05-0.329D-04 0.159D-03-0.876D-04 0.289D-02
 Coeff:     -0.703D-03 0.567D-02-0.327D-01 0.364D-01-0.740D-01 0.455D-01
 Coeff:      0.302D-01-0.324D-02 0.760D-02-0.879D-01-0.257D+00 0.339D+00
 Coeff:      0.988D+00
 Gap=     0.254 Goal=   None    Shift=    0.000
 Gap=     0.092 Goal=   None    Shift=    0.000
 RMSDP=3.29D-07 MaxDP=3.03D-05 DE= 1.12D-08 OVMax= 2.12D-04

 Cycle  20  Pass 1  IDiag  1:
 RMSU=  1.24D-07    CP:  9.54D-01  2.10D+00  7.45D-01  8.28D-01  9.00D-01
                    CP:  5.03D-01 -3.00D+00 -3.00D+00 -3.00D+00 -3.00D+00
                    CP: -3.00D+00  3.00D+00  3.00D+00  1.61D+00  1.42D+00
                    CP:  8.56D-01  1.06D+00  1.76D+00  1.48D+00
 E= -1495.38154899710     Delta-E=       -0.000000005871 Rises=F Damp=F
 DIIS: error= 8.70D-07 at cycle  20 NSaved=  20.
 NSaved=20 IEnMin=11 EnMin= -1495.38176452098     IErMin=20 ErrMin= 8.70D-07
 ErrMax= 8.70D-07  0.00D+00 EMaxC= 1.00D-01 BMatC= 1.39D-09 BMatP= 4.91D-09
 IDIUse=1 WtCom= 1.00D+00 WtEn= 0.00D+00
 Coeff-Com: -0.664D-05 0.782D-05-0.127D-04 0.155D-03 0.229D-04 0.151D-02
 Coeff-Com:  0.165D-02 0.742D-04-0.104D-01 0.250D-01-0.553D-01 0.375D-01
 Coeff-Com:  0.129D-01-0.711D-02-0.228D-02-0.313D-02-0.107D+00-0.129D+00
 Coeff-Com:  0.258D+00 0.978D+00
 Coeff:     -0.664D-05 0.782D-05-0.127D-04 0.155D-03 0.229D-04 0.151D-02
 Coeff:      0.165D-02 0.742D-04-0.104D-01 0.250D-01-0.553D-01 0.375D-01
 Coeff:      0.129D-01-0.711D-02-0.228D-02-0.313D-02-0.107D+00-0.129D+00
 Coeff:      0.258D+00 0.978D+00
 Gap=     0.254 Goal=   None    Shift=    0.000
 Gap=     0.092 Goal=   None    Shift=    0.000
 RMSDP=1.91D-07 MaxDP=1.91D-05 DE=-5.87D-09 OVMax= 9.71D-05

 Cycle  21  Pass 1  IDiag  1:
 Restarting incremental Fock formation.
 E= -1495.38154899943     Delta-E=       -0.000000002332 Rises=F Damp=F
 DIIS: error= 3.04D-07 at cycle  21 NSaved=  20.
 NSaved=20 IEnMin=10 EnMin= -1495.38176452098     IErMin=20 ErrMin= 3.04D-07
 ErrMax= 3.04D-07  0.00D+00 EMaxC= 1.00D-01 BMatC= 3.22D-10 BMatP= 1.39D-09
 IDIUse=1 WtCom= 1.00D+00 WtEn= 0.00D+00
 Coeff-Com: -0.187D-05-0.104D-04 0.247D-04 0.426D-04 0.142D-03 0.188D-02
 Coeff-Com: -0.193D-02 0.122D-02 0.129D-02-0.890D-02 0.772D-02 0.302D-02
 Coeff-Com: -0.125D-02-0.391D-02 0.564D-02 0.137D-01-0.105D+00-0.130D+00
 Coeff-Com:  0.399D+00 0.817D+00
 Coeff:     -0.187D-05-0.104D-04 0.247D-04 0.426D-04 0.142D-03 0.188D-02
 Coeff:     -0.193D-02 0.122D-02 0.129D-02-0.890D-02 0.772D-02 0.302D-02
 Coeff:     -0.125D-02-0.391D-02 0.564D-02 0.137D-01-0.105D+00-0.130D+00
 Coeff:      0.399D+00 0.817D+00
 Gap=     0.254 Goal=   None    Shift=    0.000
 Gap=     0.092 Goal=   None    Shift=    0.000
 RMSDP=2.00D-07 MaxDP=2.11D-05 DE=-2.33D-09 OVMax= 1.44D-04

 Cycle  22  Pass 1  IDiag  1:
 RMSU=  2.00D-07    CP:  1.00D+00
 E= -1495.38154899928     Delta-E=        0.000000000150 Rises=F Damp=F
 DIIS: error= 1.52D-07 at cycle  22 NSaved=  20.
 NSaved=20 IEnMin= 9 EnMin= -1495.38176452098     IErMin=20 ErrMin= 1.52D-07
 ErrMax= 1.52D-07  0.00D+00 EMaxC= 1.00D-01 BMatC= 8.50D-11 BMatP= 3.22D-10
 IDIUse=1 WtCom= 1.00D+00 WtEn= 0.00D+00
 Coeff-Com: -0.104D-04-0.633D-04-0.757D-04-0.239D-03 0.106D-02-0.259D-03
 Coeff-Com:  0.996D-03-0.916D-02 0.145D-01-0.869D-02 0.902D-03 0.337D-02
 Coeff-Com:  0.437D-03-0.882D-02 0.242D-01 0.135D-01-0.921D-01-0.878D-01
 Coeff-Com:  0.283D+00 0.865D+00
 Coeff:     -0.104D-04-0.633D-04-0.757D-04-0.239D-03 0.106D-02-0.259D-03
 Coeff:      0.996D-03-0.916D-02 0.145D-01-0.869D-02 0.902D-03 0.337D-02
 Coeff:      0.437D-03-0.882D-02 0.242D-01 0.135D-01-0.921D-01-0.878D-01
 Coeff:      0.283D+00 0.865D+00
 Gap=     0.254 Goal=   None    Shift=    0.000
 Gap=     0.092 Goal=   None    Shift=    0.000
 RMSDP=1.95D-07 MaxDP=1.98D-05 DE= 1.50D-10 OVMax= 1.49D-04

 Cycle  23  Pass 1  IDiag  1:
 RMSU=  5.40D-08    CP:  1.00D+00  1.94D+00
 E= -1495.38154899921     Delta-E=        0.000000000069 Rises=F Damp=F
 DIIS: error= 5.99D-08 at cycle  23 NSaved=  20.
 NSaved=20 IEnMin= 8 EnMin= -1495.38176452098     IErMin=20 ErrMin= 5.99D-08
 ErrMax= 5.99D-08  0.00D+00 EMaxC= 1.00D-01 BMatC= 8.57D-12 BMatP= 8.50D-11
 IDIUse=1 WtCom= 1.00D+00 WtEn= 0.00D+00
 Coeff-Com: -0.156D-04-0.267D-04-0.433D-04-0.207D-03 0.464D-03-0.245D-03
 Coeff-Com: -0.153D-02 0.447D-02-0.355D-02-0.786D-03 0.118D-02 0.249D-02
 Coeff-Com: -0.275D-02-0.132D-02 0.184D-01 0.131D-01-0.804D-01-0.106D+00
 Coeff-Com:  0.167D+00 0.989D+00
 Coeff:     -0.156D-04-0.267D-04-0.433D-04-0.207D-03 0.464D-03-0.245D-03
 Coeff:     -0.153D-02 0.447D-02-0.355D-02-0.786D-03 0.118D-02 0.249D-02
 Coeff:     -0.275D-02-0.132D-02 0.184D-01 0.131D-01-0.804D-01-0.106D+00
 Coeff:      0.167D+00 0.989D+00
 Gap=     0.254 Goal=   None    Shift=    0.000
 Gap=     0.092 Goal=   None    Shift=    0.000
 RMSDP=1.87D-08 MaxDP=1.58D-06 DE= 6.91D-11 OVMax= 1.13D-05

 Cycle  24  Pass 1  IDiag  1:
 RMSU=  1.09D-08    CP:  1.00D+00  1.86D+00  1.04D+00
 E= -1495.38154899922     Delta-E=       -0.000000000012 Rises=F Damp=F
 DIIS: error= 3.03D-08 at cycle  24 NSaved=  20.
 NSaved=20 IEnMin= 7 EnMin= -1495.38176452098     IErMin=20 ErrMin= 3.03D-08
 ErrMax= 3.03D-08  0.00D+00 EMaxC= 1.00D-01 BMatC= 4.32D-12 BMatP= 8.57D-12
 IDIUse=1 WtCom= 1.00D+00 WtEn= 0.00D+00
 Coeff-Com: -0.745D-05 0.514D-04-0.234D-03 0.333D-03-0.431D-03 0.111D-02
 Coeff-Com: -0.149D-02 0.598D-03-0.235D-03-0.347D-03 0.854D-03 0.132D-02
 Coeff-Com: -0.689D-02 0.319D-02 0.271D-01-0.162D-01-0.104D+00-0.893D-01
 Coeff-Com:  0.427D+00 0.758D+00
 Coeff:     -0.745D-05 0.514D-04-0.234D-03 0.333D-03-0.431D-03 0.111D-02
 Coeff:     -0.149D-02 0.598D-03-0.235D-03-0.347D-03 0.854D-03 0.132D-02
 Coeff:     -0.689D-02 0.319D-02 0.271D-01-0.162D-01-0.104D+00-0.893D-01
 Coeff:      0.427D+00 0.758D+00
 Gap=     0.254 Goal=   None    Shift=    0.000
 Gap=     0.092 Goal=   None    Shift=    0.000
 RMSDP=3.20D-08 MaxDP=3.22D-06 DE=-1.23D-11 OVMax= 2.43D-05

 Cycle  25  Pass 1  IDiag  1:
 RMSU=  3.27D-09    CP:  1.00D+00  1.71D+00  8.77D-01  1.42D+00
 E= -1495.38154899923     Delta-E=       -0.000000000013 Rises=F Damp=F
 DIIS: error= 2.58D-08 at cycle  25 NSaved=  20.
 NSaved=20 IEnMin= 6 EnMin= -1495.38176452098     IErMin=20 ErrMin= 2.58D-08
 ErrMax= 2.58D-08  0.00D+00 EMaxC= 1.00D-01 BMatC= 1.13D-12 BMatP= 4.32D-12
 IDIUse=1 WtCom= 1.00D+00 WtEn= 0.00D+00
 Coeff-Com:  0.491D-05-0.468D-05 0.784D-05 0.659D-04 0.128D-03-0.104D-02
 Coeff-Com:  0.776D-03 0.307D-03-0.351D-03-0.833D-03 0.101D-02 0.315D-03
 Coeff-Com:  0.983D-03 0.194D-02-0.559D-02-0.139D-01-0.325D-01-0.116D+00
 Coeff-Com:  0.164D+00 0.100D+01
 Coeff:      0.491D-05-0.468D-05 0.784D-05 0.659D-04 0.128D-03-0.104D-02
 Coeff:      0.776D-03 0.307D-03-0.351D-03-0.833D-03 0.101D-02 0.315D-03
 Coeff:      0.983D-03 0.194D-02-0.559D-02-0.139D-01-0.325D-01-0.116D+00
 Coeff:      0.164D+00 0.100D+01
 Gap=     0.254 Goal=   None    Shift=    0.000
 Gap=     0.092 Goal=   None    Shift=    0.000
 RMSDP=4.54D-09 MaxDP=2.93D-07 DE=-1.32D-11 OVMax= 2.35D-06

 Error on total polarization charges =  0.01884
 SCF Done:  E(ULC-wHPBE) =  -1495.38154900     A.U. after   25 cycles
            NFock= 25  Conv=0.45D-08     -V/T= 2.0096
 <Sx>= 0.0000 <Sy>= 0.0000 <Sz>= 0.5000 <S**2>= 0.7635 S= 0.5067
 <L.S>=  0.00000000000    
 KE= 1.481112789067D+03 PE=-1.053534292772D+04 EE= 4.009806977916D+03
 Annihilation of the first spin contaminant:
 S**2 before annihilation     0.7635,   after     0.7501
 Leave Link  502 at Thu May 12 14:12:19 2022, MaxMem=  6442450944 cpu:            6421.9 elap:             419.0
 (Enter /home1/apps/gaussian/16rA.03/g16/l601.exe)
 Copying SCF densities to generalized density rwf, IOpCl= 1 IROHF=0.

 **********************************************************************

            Population analysis using the SCF density.

 **********************************************************************

 Orbital symmetries:
 Alpha Orbitals:
       Occupied  (A) (A) (A) (A) (A) (A) (A) (A) (A) (A) (A) (A)
                 (A) (A) (A) (A) (A) (A) (A) (A) (A) (A) (A) (A)
                 (A) (A) (A) (A) (A) (A) (A) (A) (A) (A) (A) (A)
                 (A) (A) (A) (A) (A) (A) (A) (A) (A) (A) (A) (A)
                 (A) (A) (A) (A) (A) (A) (A) (A) (A) (A) (A) (A)
                 (A) (A) (A) (A) (A) (A) (A) (A) (A) (A) (A) (A)
                 (A) (A) (A) (A) (A) (A) (A) (A) (A) (A) (A) (A)
                 (A) (A) (A) (A) (A) (A) (A) (A) (A) (A) (A) (A)
                 (A) (A) (A) (A) (A) (A) (A) (A) (A) (A) (A) (A)
                 (A) (A) (A) (A) (A) (A) (A) (A) (A) (A) (A) (A)
                 (A) (A) (A) (A) (A) (A) (A) (A) (A)
       Virtual   (A) (A) (A) (A) (A) (A) (A) (A) (A) (A) (A) (A)
                 (A) (A) (A) (A) (A) (A) (A) (A) (A) (A) (A) (A)
                 (A) (A) (A) (A) (A) (A) (A) (A) (A) (A) (A) (A)
                 (A) (A) (A) (A) (A) (A) (A) (A) (A) (A) (A) (A)
                 (A) (A) (A) (A) (A) (A) (A) (A) (A) (A) (A) (A)
                 (A) (A) (A) (A) (A) (A) (A) (A) (A) (A) (A) (A)
                 (A) (A) (A) (A) (A) (A) (A) (A) (A) (A) (A) (A)
                 (A) (A) (A) (A) (A) (A) (A) (A) (A) (A) (A) (A)
                 (A) (A) (A) (A) (A) (A) (A) (A) (A) (A) (A) (A)
                 (A) (A) (A) (A) (A) (A) (A) (A) (A) (A) (A) (A)
                 (A) (A) (A) (A) (A) (A) (A) (A) (A) (A) (A) (A)
                 (A) (A) (A) (A) (A) (A) (A) (A) (A) (A) (A) (A)
                 (A) (A) (A) (A) (A) (A) (A) (A) (A) (A) (A) (A)
                 (A) (A) (A) (A) (A) (A) (A) (A) (A) (A) (A) (A)
                 (A) (A) (A) (A) (A) (A) (A) (A) (A) (A) (A) (A)
                 (A) (A) (A) (A) (A) (A) (A) (A) (A) (A) (A) (A)
                 (A) (A) (A) (A) (A) (A) (A) (A) (A) (A) (A) (A)
                 (A) (A) (A) (A) (A) (A) (A) (A) (A) (A) (A) (A)
                 (A) (A) (A) (A) (A) (A) (A) (A) (A) (A) (A) (A)
                 (A) (A) (A) (A) (A) (A) (A) (A) (A) (A) (A) (A)
                 (A) (A) (A) (A) (A) (A) (A) (A) (A) (A) (A) (A)
                 (A) (A) (A) (A) (A) (A) (A) (A) (A) (A) (A) (A)
                 (A) (A) (A) (A) (A) (A) (A) (A) (A) (A) (A) (A)
                 (A) (A) (A) (A) (A) (A) (A) (A) (A) (A) (A) (A)
                 (A) (A) (A) (A) (A) (A) (A) (A) (A) (A) (A) (A)
                 (A) (A) (A) (A) (A) (A) (A) (A) (A) (A) (A) (A)
                 (A) (A) (A) (A) (A) (A) (A) (A) (A) (A) (A) (A)
                 (A) (A) (A) (A) (A) (A) (A) (A) (A) (A) (A) (A)
                 (A) (A) (A) (A) (A) (A) (A) (A) (A) (A) (A) (A)
                 (A) (A) (A) (A) (A) (A) (A) (A) (A) (A) (A) (A)
                 (A) (A) (A) (A) (A) (A) (A) (A) (A) (A) (A) (A)
                 (A) (A) (A) (A) (A) (A) (A) (A) (A) (A) (A) (A)
                 (A) (A) (A) (A) (A) (A) (A) (A) (A) (A) (A) (A)
                 (A) (A) (A) (A) (A) (A) (A) (A) (A) (A) (A) (A)
                 (A) (A) (A) (A) (A) (A) (A) (A) (A) (A) (A) (A)
                 (A) (A) (A) (A) (A) (A) (A) (A) (A) (A) (A) (A)
                 (A) (A) (A) (A) (A) (A) (A) (A) (A) (A) (A) (A)
                 (A) (A) (A) (A) (A) (A) (A) (A) (A) (A) (A) (A)
                 (A) (A) (A) (A) (A) (A) (A) (A) (A) (A) (A) (A)
                 (A) (A) (A) (A) (A) (A) (A) (A) (A) (A) (A) (A)
                 (A) (A) (A) (A) (A) (A) (A) (A) (A) (A) (A) (A)
                 (A) (A) (A) (A) (A) (A) (A) (A) (A) (A) (A) (A)
                 (A) (A) (A) (A) (A) (A) (A) (A) (A) (A) (A) (A)
                 (A) (A) (A) (A) (A) (A) (A) (A) (A) (A) (A) (A)
                 (A) (A) (A) (A) (A) (A) (A) (A) (A) (A) (A) (A)
                 (A) (A) (A)
 Beta  Orbitals:
       Occupied  (A) (A) (A) (A) (A) (A) (A) (A) (A) (A) (A) (A)
                 (A) (A) (A) (A) (A) (A) (A) (A) (A) (A) (A) (A)
                 (A) (A) (A) (A) (A) (A) (A) (A) (A) (A) (A) (A)
                 (A) (A) (A) (A) (A) (A) (A) (A) (A) (A) (A) (A)
                 (A) (A) (A) (A) (A) (A) (A) (A) (A) (A) (A) (A)
                 (A) (A) (A) (A) (A) (A) (A) (A) (A) (A) (A) (A)
                 (A) (A) (A) (A) (A) (A) (A) (A) (A) (A) (A) (A)
                 (A) (A) (A) (A) (A) (A) (A) (A) (A) (A) (A) (A)
                 (A) (A) (A) (A) (A) (A) (A) (A) (A) (A) (A) (A)
                 (A) (A) (A) (A) (A) (A) (A) (A) (A) (A) (A) (A)
                 (A) (A) (A) (A) (A) (A) (A) (A)
       Virtual   (A) (A) (A) (A) (A) (A) (A) (A) (A) (A) (A) (A)
                 (A) (A) (A) (A) (A) (A) (A) (A) (A) (A) (A) (A)
                 (A) (A) (A) (A) (A) (A) (A) (A) (A) (A) (A) (A)
                 (A) (A) (A) (A) (A) (A) (A) (A) (A) (A) (A) (A)
                 (A) (A) (A) (A) (A) (A) (A) (A) (A) (A) (A) (A)
                 (A) (A) (A) (A) (A) (A) (A) (A) (A) (A) (A) (A)
                 (A) (A) (A) (A) (A) (A) (A) (A) (A) (A) (A) (A)
                 (A) (A) (A) (A) (A) (A) (A) (A) (A) (A) (A) (A)
                 (A) (A) (A) (A) (A) (A) (A) (A) (A) (A) (A) (A)
                 (A) (A) (A) (A) (A) (A) (A) (A) (A) (A) (A) (A)
                 (A) (A) (A) (A) (A) (A) (A) (A) (A) (A) (A) (A)
                 (A) (A) (A) (A) (A) (A) (A) (A) (A) (A) (A) (A)
                 (A) (A) (A) (A) (A) (A) (A) (A) (A) (A) (A) (A)
                 (A) (A) (A) (A) (A) (A) (A) (A) (A) (A) (A) (A)
                 (A) (A) (A) (A) (A) (A) (A) (A) (A) (A) (A) (A)
                 (A) (A) (A) (A) (A) (A) (A) (A) (A) (A) (A) (A)
                 (A) (A) (A) (A) (A) (A) (A) (A) (A) (A) (A) (A)
                 (A) (A) (A) (A) (A) (A) (A) (A) (A) (A) (A) (A)
                 (A) (A) (A) (A) (A) (A) (A) (A) (A) (A) (A) (A)
                 (A) (A) (A) (A) (A) (A) (A) (A) (A) (A) (A) (A)
                 (A) (A) (A) (A) (A) (A) (A) (A) (A) (A) (A) (A)
                 (A) (A) (A) (A) (A) (A) (A) (A) (A) (A) (A) (A)
                 (A) (A) (A) (A) (A) (A) (A) (A) (A) (A) (A) (A)
                 (A) (A) (A) (A) (A) (A) (A) (A) (A) (A) (A) (A)
                 (A) (A) (A) (A) (A) (A) (A) (A) (A) (A) (A) (A)
                 (A) (A) (A) (A) (A) (A) (A) (A) (A) (A) (A) (A)
                 (A) (A) (A) (A) (A) (A) (A) (A) (A) (A) (A) (A)
                 (A) (A) (A) (A) (A) (A) (A) (A) (A) (A) (A) (A)
                 (A) (A) (A) (A) (A) (A) (A) (A) (A) (A) (A) (A)
                 (A) (A) (A) (A) (A) (A) (A) (A) (A) (A) (A) (A)
                 (A) (A) (A) (A) (A) (A) (A) (A) (A) (A) (A) (A)
                 (A) (A) (A) (A) (A) (A) (A) (A) (A) (A) (A) (A)
                 (A) (A) (A) (A) (A) (A) (A) (A) (A) (A) (A) (A)
                 (A) (A) (A) (A) (A) (A) (A) (A) (A) (A) (A) (A)
                 (A) (A) (A) (A) (A) (A) (A) (A) (A) (A) (A) (A)
                 (A) (A) (A) (A) (A) (A) (A) (A) (A) (A) (A) (A)
                 (A) (A) (A) (A) (A) (A) (A) (A) (A) (A) (A) (A)
                 (A) (A) (A) (A) (A) (A) (A) (A) (A) (A) (A) (A)
                 (A) (A) (A) (A) (A) (A) (A) (A) (A) (A) (A) (A)
                 (A) (A) (A) (A) (A) (A) (A) (A) (A) (A) (A) (A)
                 (A) (A) (A) (A) (A) (A) (A) (A) (A) (A) (A) (A)
                 (A) (A) (A) (A) (A) (A) (A) (A) (A) (A) (A) (A)
                 (A) (A) (A) (A) (A) (A) (A) (A) (A) (A) (A) (A)
                 (A) (A) (A) (A) (A) (A) (A) (A) (A) (A) (A) (A)
                 (A) (A) (A) (A) (A) (A) (A) (A) (A) (A) (A) (A)
                 (A) (A) (A) (A)
 The electronic state is 2-A.
 Alpha  occ. eigenvalues --  -14.17619 -14.15652 -10.06821 -10.06065 -10.05107
 Alpha  occ. eigenvalues --  -10.04934 -10.04545 -10.04228 -10.02643 -10.01979
 Alpha  occ. eigenvalues --  -10.01960 -10.01907 -10.01597 -10.01429 -10.01262
 Alpha  occ. eigenvalues --  -10.01190 -10.01080 -10.01010 -10.00945 -10.00726
 Alpha  occ. eigenvalues --  -10.00514 -10.00464 -10.00415 -10.00412 -10.00202
 Alpha  occ. eigenvalues --  -10.00077 -10.00035 -10.00019  -9.99895  -9.99885
 Alpha  occ. eigenvalues --   -9.99880  -9.99764  -9.99729  -9.99697  -9.99592
 Alpha  occ. eigenvalues --   -9.99482  -9.99373  -9.99121  -1.01124  -1.00083
 Alpha  occ. eigenvalues --   -0.92115  -0.90036  -0.89630  -0.89148  -0.88073
 Alpha  occ. eigenvalues --   -0.87418  -0.83274  -0.80500  -0.79994  -0.79565
 Alpha  occ. eigenvalues --   -0.78986  -0.78315  -0.78149  -0.77794  -0.77666
 Alpha  occ. eigenvalues --   -0.77228  -0.75983  -0.74567  -0.69351  -0.69168
 Alpha  occ. eigenvalues --   -0.67668  -0.66894  -0.65991  -0.65674  -0.64705
 Alpha  occ. eigenvalues --   -0.64539  -0.64222  -0.63986  -0.62671  -0.61997
 Alpha  occ. eigenvalues --   -0.60618  -0.59617  -0.59469  -0.58990  -0.57328
 Alpha  occ. eigenvalues --   -0.55146  -0.55140  -0.54324  -0.53601  -0.53389
 Alpha  occ. eigenvalues --   -0.52828  -0.52121  -0.51548  -0.50759  -0.50701
 Alpha  occ. eigenvalues --   -0.50501  -0.49975  -0.49494  -0.49207  -0.48924
 Alpha  occ. eigenvalues --   -0.48454  -0.48129  -0.47961  -0.47507  -0.47259
 Alpha  occ. eigenvalues --   -0.47040  -0.46393  -0.46141  -0.46006  -0.45463
 Alpha  occ. eigenvalues --   -0.44998  -0.44740  -0.44111  -0.43559  -0.42640
 Alpha  occ. eigenvalues --   -0.42320  -0.41780  -0.41602  -0.41454  -0.41209
 Alpha  occ. eigenvalues --   -0.41123  -0.40163  -0.39504  -0.38987  -0.38717
 Alpha  occ. eigenvalues --   -0.38288  -0.37369  -0.35809  -0.34209  -0.33927
 Alpha  occ. eigenvalues --   -0.33528  -0.32811  -0.32668  -0.32602  -0.32482
 Alpha  occ. eigenvalues --   -0.32161  -0.31949  -0.29168  -0.27492
 Alpha virt. eigenvalues --   -0.02111  -0.00502   0.00229   0.01120   0.01438
 Alpha virt. eigenvalues --    0.01691   0.02171   0.02396   0.02498   0.02850
 Alpha virt. eigenvalues --    0.03480   0.05000   0.09166   0.09866   0.11115
 Alpha virt. eigenvalues --    0.11527   0.11962   0.12693   0.12889   0.13543
 Alpha virt. eigenvalues --    0.14183   0.14334   0.15177   0.15575   0.15678
 Alpha virt. eigenvalues --    0.16135   0.16340   0.16700   0.16898   0.17280
 Alpha virt. eigenvalues --    0.17482   0.17908   0.18102   0.18501   0.18888
 Alpha virt. eigenvalues --    0.19012   0.19182   0.19609   0.20204   0.20304
 Alpha virt. eigenvalues --    0.20813   0.20907   0.21303   0.22116   0.24021
 Alpha virt. eigenvalues --    0.25047   0.25723   0.25760   0.25944   0.26262
 Alpha virt. eigenvalues --    0.26732   0.27554   0.28476   0.28849   0.29723
 Alpha virt. eigenvalues --    0.30664   0.31182   0.31414   0.31867   0.32182
 Alpha virt. eigenvalues --    0.32352   0.32455   0.32789   0.33144   0.33363
 Alpha virt. eigenvalues --    0.34023   0.34264   0.34351   0.34993   0.35667
 Alpha virt. eigenvalues --    0.36380   0.36456   0.36727   0.37019   0.37319
 Alpha virt. eigenvalues --    0.37888   0.38105   0.38489   0.38981   0.39663
 Alpha virt. eigenvalues --    0.39678   0.40208   0.41020   0.41288   0.42391
 Alpha virt. eigenvalues --    0.42651   0.43057   0.43903   0.44064   0.44338
 Alpha virt. eigenvalues --    0.44553   0.44913   0.45003   0.45241   0.45362
 Alpha virt. eigenvalues --    0.45786   0.46473   0.46768   0.47081   0.47168
 Alpha virt. eigenvalues --    0.47778   0.48240   0.48376   0.48764   0.49111
 Alpha virt. eigenvalues --    0.49559   0.50091   0.50314   0.50565   0.50809
 Alpha virt. eigenvalues --    0.51087   0.51343   0.51604   0.52048   0.52153
 Alpha virt. eigenvalues --    0.52440   0.52641   0.52922   0.53013   0.53248
 Alpha virt. eigenvalues --    0.53459   0.53701   0.54049   0.54314   0.54978
 Alpha virt. eigenvalues --    0.55426   0.56171   0.57213   0.57610   0.57825
 Alpha virt. eigenvalues --    0.58218   0.58361   0.58684   0.58911   0.59212
 Alpha virt. eigenvalues --    0.60113   0.60282   0.60706   0.60848   0.61318
 Alpha virt. eigenvalues --    0.61801   0.62163   0.62954   0.63322   0.64082
 Alpha virt. eigenvalues --    0.64520   0.64708   0.64793   0.65510   0.65798
 Alpha virt. eigenvalues --    0.66046   0.66242   0.66782   0.67044   0.67475
 Alpha virt. eigenvalues --    0.67778   0.67883   0.68071   0.68410   0.68479
 Alpha virt. eigenvalues --    0.68648   0.68909   0.69068   0.69740   0.70066
 Alpha virt. eigenvalues --    0.70399   0.70616   0.70880   0.71137   0.71318
 Alpha virt. eigenvalues --    0.71482   0.71921   0.72236   0.72548   0.73081
 Alpha virt. eigenvalues --    0.73675   0.73797   0.73994   0.74428   0.74770
 Alpha virt. eigenvalues --    0.75275   0.75559   0.75981   0.76294   0.76595
 Alpha virt. eigenvalues --    0.77305   0.77512   0.78153   0.78608   0.78733
 Alpha virt. eigenvalues --    0.79052   0.79422   0.79701   0.79939   0.80038
 Alpha virt. eigenvalues --    0.80487   0.80692   0.81115   0.81348   0.82126
 Alpha virt. eigenvalues --    0.82600   0.82861   0.83433   0.83790   0.84447
 Alpha virt. eigenvalues --    0.85039   0.85428   0.85583   0.86264   0.87590
 Alpha virt. eigenvalues --    0.87774   0.88438   0.88793   0.90741   0.91035
 Alpha virt. eigenvalues --    0.91456   0.91596   0.92359   0.93844   0.94140
 Alpha virt. eigenvalues --    0.95427   0.95587   0.96377   0.96903   0.97332
 Alpha virt. eigenvalues --    0.98638   0.98791   0.99296   0.99908   1.01485
 Alpha virt. eigenvalues --    1.03018   1.04010   1.04920   1.05298   1.06201
 Alpha virt. eigenvalues --    1.07014   1.07789   1.09191   1.09874   1.10665
 Alpha virt. eigenvalues --    1.11654   1.12319   1.13305   1.13670   1.15312
 Alpha virt. eigenvalues --    1.16631   1.16865   1.19068   1.20030   1.20241
 Alpha virt. eigenvalues --    1.20992   1.21285   1.21870   1.23037   1.23741
 Alpha virt. eigenvalues --    1.24272   1.24315   1.24689   1.25597   1.26129
 Alpha virt. eigenvalues --    1.26621   1.26833   1.27097   1.27609   1.28204
 Alpha virt. eigenvalues --    1.28254   1.28552   1.28990   1.29185   1.29480
 Alpha virt. eigenvalues --    1.29760   1.30321   1.30596   1.31363   1.32171
 Alpha virt. eigenvalues --    1.32526   1.32875   1.33089   1.33532   1.33925
 Alpha virt. eigenvalues --    1.35095   1.35349   1.37018   1.37619   1.38218
 Alpha virt. eigenvalues --    1.39058   1.40602   1.42767   1.43868   1.47641
 Alpha virt. eigenvalues --    1.49456   1.51028   1.52774   1.53400   1.54335
 Alpha virt. eigenvalues --    1.54917   1.55964   1.57403   1.58143   1.59372
 Alpha virt. eigenvalues --    1.60534   1.61710   1.62186   1.62328   1.64390
 Alpha virt. eigenvalues --    1.64828   1.65709   1.67473   1.68452   1.68942
 Alpha virt. eigenvalues --    1.69343   1.69586   1.69683   1.70030   1.70320
 Alpha virt. eigenvalues --    1.70867   1.70987   1.72192   1.72801   1.73182
 Alpha virt. eigenvalues --    1.73600   1.73803   1.74220   1.74330   1.74619
 Alpha virt. eigenvalues --    1.74854   1.75291   1.75559   1.76037   1.76362
 Alpha virt. eigenvalues --    1.76503   1.76669   1.76733   1.76975   1.77338
 Alpha virt. eigenvalues --    1.77568   1.77824   1.77965   1.78014   1.78548
 Alpha virt. eigenvalues --    1.78906   1.79070   1.79160   1.79943   1.80224
 Alpha virt. eigenvalues --    1.80906   1.81358   1.81549   1.81848   1.82514
 Alpha virt. eigenvalues --    1.82905   1.83216   1.83786   1.84276   1.84662
 Alpha virt. eigenvalues --    1.85008   1.85560   1.85987   1.86793   1.87201
 Alpha virt. eigenvalues --    1.87652   1.88355   1.89541   1.89821   1.90672
 Alpha virt. eigenvalues --    1.91443   1.92545   1.92989   1.93181   1.93393
 Alpha virt. eigenvalues --    1.93617   1.94865   1.95040   1.95180   1.95462
 Alpha virt. eigenvalues --    1.95944   1.97327   1.98020   1.98438   1.98627
 Alpha virt. eigenvalues --    1.99107   1.99293   1.99704   2.00203   2.00385
 Alpha virt. eigenvalues --    2.00656   2.00850   2.01591   2.01845   2.03165
 Alpha virt. eigenvalues --    2.03578   2.04424   2.04575   2.05852   2.06088
 Alpha virt. eigenvalues --    2.07186   2.08573   2.09332   2.10166   2.10829
 Alpha virt. eigenvalues --    2.11058   2.11460   2.12302   2.13014   2.14154
 Alpha virt. eigenvalues --    2.14369   2.15081   2.15373   2.16190   2.16584
 Alpha virt. eigenvalues --    2.16927   2.17263   2.17491   2.17905   2.18570
 Alpha virt. eigenvalues --    2.19182   2.19487   2.20317   2.20893   2.21060
 Alpha virt. eigenvalues --    2.22023   2.23081   2.23454   2.23895   2.25653
 Alpha virt. eigenvalues --    2.26148   2.26338   2.27263   2.27625   2.28180
 Alpha virt. eigenvalues --    2.28529   2.29128   2.29461   2.30882   2.31397
 Alpha virt. eigenvalues --    2.31660   2.32218   2.32444   2.33076   2.33236
 Alpha virt. eigenvalues --    2.33724   2.34025   2.34123   2.34437   2.34749
 Alpha virt. eigenvalues --    2.35236   2.35719   2.35872   2.36221   2.36665
 Alpha virt. eigenvalues --    2.37435   2.37758   2.39510   2.40602   2.42130
 Alpha virt. eigenvalues --    2.43025   2.44988   2.46465   2.47542   2.48660
 Alpha virt. eigenvalues --    2.53019   2.55173   2.56133   2.56473   2.57038
 Alpha virt. eigenvalues --    2.57179   2.58886   2.59503   2.60145   2.60803
 Alpha virt. eigenvalues --    2.62299   2.62737   2.63281   2.63844   2.64275
 Alpha virt. eigenvalues --    2.64832   2.65211   2.65992   2.66168   2.66539
 Alpha virt. eigenvalues --    2.66968   2.67157   2.67491   2.68437   2.69355
 Alpha virt. eigenvalues --    2.71256   2.71659   2.72532   2.72996   2.73090
 Alpha virt. eigenvalues --    2.73984   2.74161   2.74893   2.75569   2.75982
 Alpha virt. eigenvalues --    2.77262   2.79167   2.79624   2.82213   2.82491
 Alpha virt. eigenvalues --    2.84774   2.86634   2.87443   2.87633   2.88323
 Alpha virt. eigenvalues --    2.88841   2.90011   2.90458   2.91236   2.91586
 Alpha virt. eigenvalues --    2.91824   2.92519   2.93479   2.95336   2.96340
 Alpha virt. eigenvalues --    2.97613   2.99443   3.00651   3.02537   3.07041
 Alpha virt. eigenvalues --    3.09220   3.10302   3.11319   3.12426   3.13286
 Alpha virt. eigenvalues --    3.14701   3.15155   3.17015   3.17205   3.18561
 Alpha virt. eigenvalues --    3.22952   3.26825   3.28605   3.30880   3.33373
 Alpha virt. eigenvalues --    3.34363   3.38449   3.58560   3.66518   3.68337
 Alpha virt. eigenvalues --    3.68688   3.70232   3.71438
  Beta  occ. eigenvalues --  -14.17142 -14.15315 -10.06735 -10.05984 -10.05130
  Beta  occ. eigenvalues --  -10.04957 -10.04558 -10.04248 -10.02526 -10.01904
  Beta  occ. eigenvalues --  -10.01896 -10.01824 -10.01566 -10.01372 -10.01231
  Beta  occ. eigenvalues --  -10.01202 -10.01066 -10.00977 -10.00865 -10.00694
  Beta  occ. eigenvalues --  -10.00475 -10.00427 -10.00403 -10.00369 -10.00229
  Beta  occ. eigenvalues --  -10.00040 -10.00027 -10.00010  -9.99900  -9.99854
  Beta  occ. eigenvalues --   -9.99853  -9.99744  -9.99733  -9.99681  -9.99556
  Beta  occ. eigenvalues --   -9.99486  -9.99377  -9.99108  -1.00504  -0.99646
  Beta  occ. eigenvalues --   -0.91889  -0.89851  -0.89548  -0.89097  -0.87949
  Beta  occ. eigenvalues --   -0.87303  -0.83015  -0.80402  -0.79898  -0.79447
  Beta  occ. eigenvalues --   -0.78859  -0.78234  -0.78082  -0.77712  -0.77598
  Beta  occ. eigenvalues --   -0.77196  -0.75815  -0.74310  -0.69234  -0.69016
  Beta  occ. eigenvalues --   -0.67530  -0.66757  -0.65882  -0.65565  -0.64605
  Beta  occ. eigenvalues --   -0.64425  -0.64154  -0.63899  -0.62575  -0.61920
  Beta  occ. eigenvalues --   -0.60519  -0.59511  -0.59378  -0.58919  -0.57229
  Beta  occ. eigenvalues --   -0.55072  -0.54973  -0.54235  -0.53480  -0.53103
  Beta  occ. eigenvalues --   -0.52647  -0.51996  -0.51453  -0.50692  -0.50564
  Beta  occ. eigenvalues --   -0.50438  -0.49895  -0.49444  -0.49167  -0.48847
  Beta  occ. eigenvalues --   -0.48370  -0.48081  -0.47894  -0.47397  -0.47212
  Beta  occ. eigenvalues --   -0.46932  -0.46208  -0.46076  -0.45975  -0.45093
  Beta  occ. eigenvalues --   -0.44784  -0.44609  -0.43977  -0.43480  -0.42526
  Beta  occ. eigenvalues --   -0.42222  -0.41545  -0.41388  -0.41363  -0.41119
  Beta  occ. eigenvalues --   -0.41066  -0.39993  -0.39308  -0.38807  -0.38577
  Beta  occ. eigenvalues --   -0.38133  -0.36808  -0.35196  -0.33988  -0.33652
  Beta  occ. eigenvalues --   -0.32870  -0.32657  -0.32494  -0.32428  -0.32133
  Beta  occ. eigenvalues --   -0.32016  -0.31570  -0.25197
  Beta virt. eigenvalues --   -0.15966  -0.01465  -0.00148   0.00531   0.01347
  Beta virt. eigenvalues --    0.01584   0.01942   0.02350   0.02505   0.02617
  Beta virt. eigenvalues --    0.03043   0.03791   0.05685   0.09248   0.09922
  Beta virt. eigenvalues --    0.11164   0.11564   0.11990   0.12736   0.12933
  Beta virt. eigenvalues --    0.13571   0.14214   0.14592   0.15216   0.15615
  Beta virt. eigenvalues --    0.15715   0.16160   0.16461   0.16785   0.16960
  Beta virt. eigenvalues --    0.17384   0.17532   0.17993   0.18167   0.18615
  Beta virt. eigenvalues --    0.19002   0.19132   0.19324   0.19848   0.20273
  Beta virt. eigenvalues --    0.20373   0.20882   0.20992   0.21422   0.22181
  Beta virt. eigenvalues --    0.24112   0.25154   0.25796   0.25865   0.26091
  Beta virt. eigenvalues --    0.26392   0.26873   0.27653   0.28614   0.28945
  Beta virt. eigenvalues --    0.29846   0.30780   0.31266   0.31497   0.31941
  Beta virt. eigenvalues --    0.32274   0.32399   0.32598   0.32867   0.33260
  Beta virt. eigenvalues --    0.33455   0.34076   0.34347   0.34452   0.35066
  Beta virt. eigenvalues --    0.35801   0.36502   0.36551   0.36818   0.37073
  Beta virt. eigenvalues --    0.37423   0.37988   0.38204   0.38616   0.39085
  Beta virt. eigenvalues --    0.39730   0.39781   0.40311   0.41148   0.41419
  Beta virt. eigenvalues --    0.42463   0.42754   0.43172   0.43983   0.44139
  Beta virt. eigenvalues --    0.44426   0.44675   0.44948   0.45032   0.45362
  Beta virt. eigenvalues --    0.45476   0.45900   0.46545   0.46896   0.47186
  Beta virt. eigenvalues --    0.47295   0.47878   0.48372   0.48458   0.48848
  Beta virt. eigenvalues --    0.49215   0.49621   0.50184   0.50397   0.50616
  Beta virt. eigenvalues --    0.50879   0.51196   0.51431   0.51681   0.52119
  Beta virt. eigenvalues --    0.52258   0.52505   0.52691   0.53023   0.53089
  Beta virt. eigenvalues --    0.53314   0.53538   0.53800   0.54132   0.54437
  Beta virt. eigenvalues --    0.55055   0.55538   0.56289   0.57335   0.57740
  Beta virt. eigenvalues --    0.57947   0.58299   0.58410   0.58758   0.58958
  Beta virt. eigenvalues --    0.59282   0.60162   0.60370   0.60825   0.60944
  Beta virt. eigenvalues --    0.61419   0.61884   0.62245   0.63066   0.63438
  Beta virt. eigenvalues --    0.64226   0.64662   0.64818   0.64952   0.65610
  Beta virt. eigenvalues --    0.65888   0.66190   0.66394   0.66854   0.67115
  Beta virt. eigenvalues --    0.67506   0.67816   0.67933   0.68104   0.68477
  Beta virt. eigenvalues --    0.68563   0.68716   0.68963   0.69198   0.69878
  Beta virt. eigenvalues --    0.70178   0.70466   0.70677   0.70953   0.71243
  Beta virt. eigenvalues --    0.71370   0.71571   0.72012   0.72307   0.72635
  Beta virt. eigenvalues --    0.73176   0.73775   0.73879   0.74068   0.74485
  Beta virt. eigenvalues --    0.74819   0.75330   0.75612   0.76052   0.76351
  Beta virt. eigenvalues --    0.76630   0.77385   0.77594   0.78236   0.78681
  Beta virt. eigenvalues --    0.78785   0.79141   0.79479   0.79797   0.79991
  Beta virt. eigenvalues --    0.80134   0.80567   0.80779   0.81210   0.81426
  Beta virt. eigenvalues --    0.82233   0.82686   0.82949   0.83622   0.83892
  Beta virt. eigenvalues --    0.84577   0.85203   0.85554   0.85688   0.86412
  Beta virt. eigenvalues --    0.87709   0.87894   0.88575   0.88932   0.90856
  Beta virt. eigenvalues --    0.91133   0.91572   0.91711   0.92454   0.93926
  Beta virt. eigenvalues --    0.94247   0.95502   0.95673   0.96440   0.96991
  Beta virt. eigenvalues --    0.97417   0.98721   0.98877   0.99475   1.00114
  Beta virt. eigenvalues --    1.01655   1.03168   1.04230   1.05176   1.05418
  Beta virt. eigenvalues --    1.06265   1.07112   1.07928   1.09283   1.09989
  Beta virt. eigenvalues --    1.10737   1.11774   1.12555   1.13424   1.13789
  Beta virt. eigenvalues --    1.15548   1.16803   1.17073   1.19193   1.20127
  Beta virt. eigenvalues --    1.20300   1.21033   1.21381   1.21947   1.23164
  Beta virt. eigenvalues --    1.23855   1.24395   1.24424   1.24806   1.25700
  Beta virt. eigenvalues --    1.26215   1.26698   1.26891   1.27210   1.27694
  Beta virt. eigenvalues --    1.28267   1.28301   1.28622   1.29111   1.29294
  Beta virt. eigenvalues --    1.29567   1.29835   1.30435   1.30730   1.31460
  Beta virt. eigenvalues --    1.32237   1.32615   1.32945   1.33159   1.33597
  Beta virt. eigenvalues --    1.34012   1.35235   1.35459   1.37115   1.37793
  Beta virt. eigenvalues --    1.38352   1.39165   1.40754   1.42845   1.43928
  Beta virt. eigenvalues --    1.47968   1.49696   1.51194   1.52882   1.53519
  Beta virt. eigenvalues --    1.54449   1.55158   1.56221   1.57537   1.58251
  Beta virt. eigenvalues --    1.59464   1.60643   1.61817   1.62272   1.62410
  Beta virt. eigenvalues --    1.64512   1.65003   1.65783   1.67534   1.68528
  Beta virt. eigenvalues --    1.69003   1.69391   1.69626   1.69753   1.70080
  Beta virt. eigenvalues --    1.70392   1.71025   1.71055   1.72316   1.72888
  Beta virt. eigenvalues --    1.73260   1.73742   1.73901   1.74320   1.74408
  Beta virt. eigenvalues --    1.74698   1.74933   1.75447   1.75637   1.76133
  Beta virt. eigenvalues --    1.76418   1.76612   1.76821   1.76847   1.77068
  Beta virt. eigenvalues --    1.77385   1.77622   1.77910   1.78058   1.78115
  Beta virt. eigenvalues --    1.78596   1.79031   1.79191   1.79246   1.80004
  Beta virt. eigenvalues --    1.80314   1.80994   1.81468   1.81604   1.81918
  Beta virt. eigenvalues --    1.82631   1.83018   1.83312   1.83817   1.84324
  Beta virt. eigenvalues --    1.84772   1.85128   1.85645   1.86099   1.86935
  Beta virt. eigenvalues --    1.87302   1.87789   1.88477   1.89699   1.89921
  Beta virt. eigenvalues --    1.90767   1.91617   1.92667   1.93136   1.93300
  Beta virt. eigenvalues --    1.93524   1.93735   1.94950   1.95101   1.95250
  Beta virt. eigenvalues --    1.95546   1.96038   1.97426   1.98068   1.98557
[...]
     1 C(13)  Bbb    -0.0049    -0.657    -0.234    -0.219  0.4850  0.7556 -0.4403
              Bcc     0.0122     1.643     0.586     0.548  0.7539 -0.1062  0.6483
 
              Baa    -0.0055    -0.743    -0.265    -0.248  0.8125 -0.0398  0.5817
     2 C(13)  Bbb     0.0005     0.073     0.026     0.024 -0.5255  0.3820  0.7602
              Bcc     0.0050     0.670     0.239     0.224  0.2524  0.9233 -0.2895
 
              Baa    -0.0121    -1.630    -0.582    -0.544 -0.3542  0.0481  0.9339
     3 C(13)  Bbb    -0.0064    -0.859    -0.307    -0.287  0.8516  0.4293  0.3009
              Bcc     0.0185     2.489     0.888     0.830 -0.3865  0.9019 -0.1930
 
              Baa    -0.0168    -2.256    -0.805    -0.753  0.7982 -0.3377  0.4988
     4 C(13)  Bbb     0.0037     0.499     0.178     0.167  0.0110  0.8361  0.5485
              Bcc     0.0131     1.757     0.627     0.586 -0.6023 -0.4324  0.6711
 
              Baa    -0.2910   -11.224    -4.005    -3.744  0.3011  0.8778 -0.3727
     5 N(14)  Bbb    -0.2882   -11.115    -3.966    -3.708  0.9501 -0.3096  0.0383
              Bcc     0.5792    22.339     7.971     7.452  0.0818  0.3656  0.9272
 
              Baa    -0.0170    -2.278    -0.813    -0.760  0.8403  0.5369 -0.0750
     6 C(13)  Bbb     0.0047     0.625     0.223     0.208 -0.3039  0.5810  0.7550
              Bcc     0.0123     1.653     0.590     0.551  0.4490 -0.6116  0.6514
 
              Baa    -0.0329    -4.412    -1.574    -1.472 -0.5142  0.7399  0.4338
     7 C(13)  Bbb    -0.0270    -3.628    -1.295    -1.210  0.1764 -0.4038  0.8977
              Bcc     0.0599     8.040     2.869     2.682  0.8394  0.5381  0.0771
 
              Baa    -0.0201    -2.692    -0.961    -0.898  0.7399  0.5076  0.4415
     8 C(13)  Bbb     0.0077     1.033     0.368     0.344 -0.5887  0.1710  0.7900
              Bcc     0.0124     1.660     0.592     0.554 -0.3255  0.8444 -0.4254
 
              Baa    -0.0280    -3.758    -1.341    -1.254 -0.6259  0.0874  0.7750
     9 C(13)  Bbb    -0.0244    -3.276    -1.169    -1.093 -0.3538  0.8538 -0.3820
              Bcc     0.0524     7.034     2.510     2.346  0.6951  0.5133  0.5034
 
              Baa    -0.0094    -1.258    -0.449    -0.420  0.5588  0.6886  0.4622
    10 C(13)  Bbb     0.0033     0.440     0.157     0.147 -0.4772 -0.1888  0.8583
              Bcc     0.0061     0.818     0.292     0.273 -0.6783  0.7001 -0.2231
 
              Baa    -0.0237    -3.183    -1.136    -1.062 -0.2270 -0.4098  0.8835
    11 C(13)  Bbb    -0.0194    -2.599    -0.927    -0.867 -0.3173  0.8888  0.3307
              Bcc     0.0431     5.782     2.063     1.929  0.9208  0.2052  0.3318
 
              Baa    -0.0486    -6.517    -2.325    -2.174  0.1612  0.9835  0.0826
    12 C(13)  Bbb    -0.0378    -5.066    -1.808    -1.690  0.9763 -0.1467 -0.1589
              Bcc     0.0863    11.583     4.133     3.864  0.1442 -0.1062  0.9838
 
              Baa    -0.0163    -2.189    -0.781    -0.730  0.3782  0.7765  0.5040
    13 C(13)  Bbb    -0.0113    -1.515    -0.541    -0.505  0.9000 -0.1809 -0.3966
              Bcc     0.0276     3.704     1.322     1.235  0.2168 -0.6036  0.7673
 
              Baa    -0.0275    -3.693    -1.318    -1.232  0.8687 -0.4721 -0.1501
    14 C(13)  Bbb    -0.0263    -3.524    -1.258    -1.176  0.4921  0.7879  0.3702
              Bcc     0.0538     7.218     2.575     2.408 -0.0566 -0.3955  0.9167
 
              Baa    -0.0516    -6.922    -2.470    -2.309 -0.2773  0.9492  0.1486
    15 C(13)  Bbb    -0.0464    -6.222    -2.220    -2.075  0.9607  0.2724  0.0531
              Bcc     0.0979    13.143     4.690     4.384 -0.0100 -0.1575  0.9875
 
              Baa    -0.0396    -5.312    -1.896    -1.772 -0.2822  0.9542 -0.0993
    16 C(13)  Bbb    -0.0340    -4.561    -1.627    -1.521  0.9594  0.2809 -0.0271
              Bcc     0.0736     9.873     3.523     3.293 -0.0020  0.1029  0.9947
 
              Baa    -0.0243    -3.266    -1.166    -1.090  0.7452 -0.6269  0.2275
    17 C(13)  Bbb    -0.0222    -2.981    -1.064    -0.994  0.6666  0.6905 -0.2809
              Bcc     0.0466     6.248     2.229     2.084  0.0190  0.3609  0.9324
 
              Baa    -0.0163    -2.185    -0.780    -0.729  0.4695  0.7963 -0.3815
    18 C(13)  Bbb    -0.0126    -1.694    -0.605    -0.565  0.8609 -0.3171  0.3978
              Bcc     0.0289     3.879     1.384     1.294 -0.1958  0.5152  0.8344
 
              Baa    -0.0426    -5.721    -2.042    -1.908  0.2147  0.9727 -0.0878
    19 C(13)  Bbb    -0.0339    -4.548    -1.623    -1.517  0.9754 -0.2088  0.0713
              Bcc     0.0765    10.269     3.664     3.425 -0.0510  0.1009  0.9936
 
              Baa    -0.2077    -8.012    -2.859    -2.672  0.4246  0.8299  0.3619
    20 N(14)  Bbb    -0.2054    -7.923    -2.827    -2.643  0.9037 -0.4126 -0.1141
              Bcc     0.4132    15.935     5.686     5.315 -0.0547 -0.3755  0.9252
 
              Baa    -0.0138    -1.846    -0.659    -0.616  0.7524  0.6584 -0.0188
    21 C(13)  Bbb     0.0012     0.158     0.056     0.053  0.5147 -0.5698  0.6406
              Bcc     0.0126     1.688     0.602     0.563 -0.4111  0.4917  0.7676
 
              Baa    -0.0133    -1.778    -0.635    -0.593  0.3020  0.2331  0.9244
    22 C(13)  Bbb    -0.0097    -1.300    -0.464    -0.434 -0.3375  0.9330 -0.1250
              Bcc     0.0229     3.079     1.099     1.027  0.8916  0.2743 -0.3604
 
              Baa    -0.0054    -0.722    -0.258    -0.241  0.5848  0.6878 -0.4301
    23 C(13)  Bbb     0.0020     0.265     0.094     0.088  0.5144  0.0955  0.8522
              Bcc     0.0034     0.458     0.163     0.153 -0.6272  0.7196  0.2979
 
              Baa    -0.0154    -2.066    -0.737    -0.689  0.6505 -0.1346  0.7475
    24 C(13)  Bbb    -0.0131    -1.762    -0.629    -0.588 -0.3711  0.8024  0.4674
              Bcc     0.0285     3.828     1.366     1.277  0.6627  0.5814 -0.4721
 
              Baa    -0.0113    -1.519    -0.542    -0.507  0.7161  0.5757 -0.3946
    25 C(13)  Bbb     0.0040     0.533     0.190     0.178  0.6175 -0.2592  0.7426
              Bcc     0.0073     0.986     0.352     0.329 -0.3253  0.7755  0.5411
 
              Baa    -0.0193    -2.584    -0.922    -0.862 -0.4707  0.7701 -0.4305
    26 C(13)  Bbb    -0.0151    -2.020    -0.721    -0.674 -0.2324  0.3625  0.9025
              Bcc     0.0343     4.604     1.643     1.536  0.8511  0.5249  0.0083
 
              Baa    -0.0136    -1.820    -0.650    -0.607  0.6870 -0.3960 -0.6093
    27 C(13)  Bbb     0.0038     0.506     0.181     0.169 -0.1985  0.7043 -0.6816
              Bcc     0.0098     1.314     0.469     0.438  0.6990  0.5892  0.4053
 
              Baa    -0.0100    -1.339    -0.478    -0.447  0.3847 -0.0293  0.9226
    28 C(13)  Bbb    -0.0054    -0.723    -0.258    -0.241  0.8461  0.4106 -0.3398
              Bcc     0.0154     2.062     0.736     0.688 -0.3689  0.9113  0.1828
 
              Baa    -0.0044    -0.589    -0.210    -0.197  0.7533 -0.1210 -0.6465
    29 C(13)  Bbb     0.0006     0.086     0.031     0.029  0.5563 -0.4072  0.7244
              Bcc     0.0038     0.504     0.180     0.168  0.3509  0.9053  0.2394
 
              Baa    -0.0056    -0.756    -0.270    -0.252 -0.4321  0.6902 -0.5805
    30 C(13)  Bbb    -0.0037    -0.503    -0.179    -0.168  0.5853  0.7043  0.4017
              Bcc     0.0094     1.259     0.449     0.420 -0.6861  0.1662  0.7083
 
              Baa    -0.0054    -0.723    -0.258    -0.241  0.6971 -0.2805 -0.6598
    31 C(13)  Bbb     0.0006     0.078     0.028     0.026 -0.1919  0.8137 -0.5487
              Bcc     0.0048     0.645     0.230     0.215  0.6908  0.5091  0.5134
 
              Baa    -0.0113    -1.514    -0.540    -0.505  0.1790  0.9020 -0.3928
    32 C(13)  Bbb    -0.0079    -1.054    -0.376    -0.352 -0.1471  0.4193  0.8958
              Bcc     0.0191     2.568     0.916     0.857  0.9728 -0.1025  0.2078
 
              Baa    -0.0157    -2.112    -0.754    -0.705 -0.3100  0.7390 -0.5982
    33 C(13)  Bbb    -0.0120    -1.604    -0.572    -0.535  0.9457  0.1751 -0.2739
              Bcc     0.0277     3.716     1.326     1.240  0.0977  0.6506  0.7531
 
              Baa    -0.0068    -0.911    -0.325    -0.304  0.2982  0.8326 -0.4668
    34 C(13)  Bbb    -0.0049    -0.652    -0.232    -0.217  0.9399 -0.1709  0.2957
              Bcc     0.0116     1.562     0.558     0.521 -0.1664  0.5269  0.8335
 
              Baa    -0.0105    -1.405    -0.501    -0.469  0.0702  0.1032  0.9922
    35 C(13)  Bbb     0.0039     0.526     0.188     0.175  0.9465  0.3071 -0.0990
              Bcc     0.0066     0.879     0.314     0.293 -0.3150  0.9460 -0.0762
 
              Baa    -0.0331    -4.441    -1.585    -1.481 -0.5941  0.6545  0.4676
    36 C(13)  Bbb    -0.0293    -3.932    -1.403    -1.311  0.8006  0.4249  0.4225
              Bcc     0.0624     8.373     2.988     2.793 -0.0778 -0.6254  0.7764
 
              Baa    -0.0140    -1.884    -0.672    -0.628  0.1320  0.9102  0.3926
    37 C(13)  Bbb    -0.0100    -1.343    -0.479    -0.448  0.2180 -0.4130  0.8842
              Bcc     0.0240     3.227     1.151     1.076  0.9670 -0.0312 -0.2529
 
              Baa    -0.0068    -0.910    -0.325    -0.304  0.7451 -0.2187  0.6301
    38 C(13)  Bbb     0.0007     0.094     0.033     0.031 -0.2107  0.8191  0.5335
              Bcc     0.0061     0.817     0.291     0.272  0.6328  0.5303 -0.5642
 
              Baa    -0.0012    -0.653    -0.233    -0.218 -0.3268  0.6512  0.6849
    39 H(1)   Bbb    -0.0004    -0.227    -0.081    -0.076  0.7656 -0.2425  0.5959
              Bcc     0.0017     0.881     0.314     0.294  0.5541  0.7191 -0.4193
 
              Baa    -0.0008    -0.411    -0.147    -0.137  0.8128 -0.3281  0.4814
    40 H(1)   Bbb    -0.0003    -0.165    -0.059    -0.055 -0.4267  0.2271  0.8754
              Bcc     0.0011     0.576     0.206     0.192  0.3965  0.9169 -0.0446
 
              Baa    -0.0027    -1.427    -0.509    -0.476  0.4750 -0.3515  0.8068
    41 H(1)   Bbb    -0.0011    -0.570    -0.203    -0.190  0.8796  0.1627 -0.4470
              Bcc     0.0037     1.997     0.712     0.666  0.0258  0.9219  0.3865
 
              Baa    -0.0029    -1.555    -0.555    -0.519  0.7230  0.5726  0.3865
    42 H(1)   Bbb    -0.0002    -0.098    -0.035    -0.033 -0.3197  0.7733 -0.5476
              Bcc     0.0031     1.654     0.590     0.552 -0.6124  0.2723  0.7422
 
              Baa    -0.0013    -0.714    -0.255    -0.238  0.7072  0.5459  0.4492
    43 H(1)   Bbb    -0.0002    -0.103    -0.037    -0.034 -0.6101  0.1503  0.7779
              Bcc     0.0015     0.816     0.291     0.272 -0.3572  0.8242 -0.4394
 
              Baa    -0.0038    -2.045    -0.730    -0.682 -0.6026  0.1587  0.7821
    44 H(1)   Bbb    -0.0006    -0.299    -0.107    -0.100  0.7307  0.5039  0.4607
              Bcc     0.0044     2.344     0.836     0.782 -0.3210  0.8491 -0.4196
 
              Baa    -0.0012    -0.650    -0.232    -0.217  0.7455  0.5760  0.3353
    45 H(1)   Bbb     0.0002     0.088     0.031     0.029  0.0274 -0.5292  0.8480
              Bcc     0.0011     0.562     0.200     0.187  0.6659 -0.6230 -0.4104
 
              Baa    -0.0025    -1.324    -0.472    -0.442  0.5603  0.6891  0.4595
    46 H(1)   Bbb    -0.0019    -0.998    -0.356    -0.333 -0.3971  0.7104 -0.5811
              Bcc     0.0044     2.321     0.828     0.774  0.7269 -0.1431 -0.6717
 
              Baa    -0.0035    -1.870    -0.667    -0.624  0.0961 -0.1810  0.9788
    47 H(1)   Bbb    -0.0013    -0.692    -0.247    -0.231  0.9857  0.1543 -0.0682
              Bcc     0.0048     2.562     0.914     0.854 -0.1387  0.9713  0.1933
 
              Baa    -0.0031    -1.629    -0.581    -0.543  0.8106  0.3764 -0.4486
    48 H(1)   Bbb    -0.0025    -1.334    -0.476    -0.445  0.4819  0.0065  0.8762
              Bcc     0.0056     2.963     1.057     0.988 -0.3327  0.9264  0.1762
 
              Baa    -0.0026    -1.375    -0.491    -0.459  0.6339  0.2829  0.7198
    49 H(1)   Bbb    -0.0021    -1.142    -0.407    -0.381  0.7300  0.0883 -0.6777
              Bcc     0.0047     2.517     0.898     0.840 -0.2553  0.9551 -0.1506
 
              Baa    -0.0029    -1.545    -0.551    -0.515 -0.1944  0.1387  0.9711
    50 H(1)   Bbb    -0.0013    -0.697    -0.249    -0.233  0.9790 -0.0340  0.2008
              Bcc     0.0042     2.243     0.800     0.748  0.0608  0.9898 -0.1292
 
              Baa    -0.0016    -0.856    -0.305    -0.286  0.6136  0.5589 -0.5577
    51 H(1)   Bbb    -0.0011    -0.594    -0.212    -0.198 -0.1358  0.7705  0.6227
              Bcc     0.0027     1.450     0.517     0.484  0.7778 -0.3064  0.5487
 
              Baa    -0.0007    -0.389    -0.139    -0.130  0.7062  0.6156 -0.3497
    52 H(1)   Bbb     0.0000     0.014     0.005     0.005  0.1258  0.3770  0.9176
              Bcc     0.0007     0.375     0.134     0.125  0.6967 -0.6921  0.1888
 
              Baa    -0.0021    -1.132    -0.404    -0.378  0.6161 -0.2128  0.7584
    53 H(1)   Bbb    -0.0004    -0.206    -0.073    -0.069  0.7134  0.5587 -0.4229
              Bcc     0.0025     1.338     0.477     0.446 -0.3338  0.8016  0.4960
 
              Baa    -0.0009    -0.484    -0.173    -0.162  0.6031  0.6456 -0.4685
    54 H(1)   Bbb    -0.0002    -0.115    -0.041    -0.038  0.7157 -0.1785  0.6752
              Bcc     0.0011     0.600     0.214     0.200 -0.3523  0.7425  0.5697
 
              Baa    -0.0023    -1.224    -0.437    -0.408  0.6764  0.6582 -0.3304
    55 H(1)   Bbb     0.0009     0.463     0.165     0.155 -0.4438  0.7223  0.5304
              Bcc     0.0014     0.760     0.271     0.254  0.5878 -0.2122  0.7807
 
              Baa    -0.0019    -1.022    -0.365    -0.341 -0.4112  0.4305  0.8035
    56 H(1)   Bbb    -0.0005    -0.280    -0.100    -0.093  0.9076  0.1112  0.4049
              Bcc     0.0024     1.302     0.465     0.434  0.0849  0.8957 -0.4364
 
              Baa    -0.0006    -0.323    -0.115    -0.108  0.7167 -0.4173 -0.5588
    57 H(1)   Bbb    -0.0002    -0.125    -0.045    -0.042  0.4690 -0.3045  0.8290
              Bcc     0.0008     0.449     0.160     0.150  0.5161  0.8562  0.0225
 
              Baa    -0.0009    -0.502    -0.179    -0.168  0.3429 -0.6426  0.6852
    58 H(1)   Bbb    -0.0003    -0.176    -0.063    -0.059  0.6910 -0.3216 -0.6474
              Bcc     0.0013     0.678     0.242     0.226  0.6364  0.6955  0.3337
 
              Baa    -0.0006    -0.343    -0.122    -0.114  0.6691 -0.3740 -0.6422
    59 H(1)   Bbb    -0.0003    -0.136    -0.049    -0.045 -0.0147  0.8573 -0.5146
              Bcc     0.0009     0.479     0.171     0.160  0.7430  0.3537  0.5681
 
              Baa    -0.0022    -1.163    -0.415    -0.388 -0.6481  0.1564  0.7453
    60 H(1)   Bbb    -0.0009    -0.475    -0.170    -0.159  0.3223  0.9430  0.0824
              Bcc     0.0031     1.638     0.585     0.546  0.6900 -0.2936  0.6616
 
              Baa    -0.0029    -1.521    -0.543    -0.507 -0.0607  0.2143  0.9749
    61 H(1)   Bbb    -0.0008    -0.412    -0.147    -0.137  0.9981 -0.0009  0.0623
              Bcc     0.0036     1.933     0.690     0.645  0.0143  0.9768 -0.2139
 
              Baa    -0.0027    -1.456    -0.520    -0.486 -0.1557  0.1723  0.9727
    62 H(1)   Bbb     0.0004     0.210     0.075     0.070  0.9818  0.1356  0.1332
              Bcc     0.0023     1.246     0.445     0.416 -0.1089  0.9757 -0.1903
 
              Baa    -0.0028    -1.492    -0.532    -0.498  0.0497 -0.2939  0.9545
    63 H(1)   Bbb     0.0006     0.328     0.117     0.109  0.9339  0.3526  0.0599
              Bcc     0.0022     1.164     0.415     0.388 -0.3542  0.8884  0.2920
 
              Baa    -0.0038    -2.032    -0.725    -0.678  0.1656 -0.2624  0.9506
    64 H(1)   Bbb    -0.0017    -0.889    -0.317    -0.297  0.9564  0.2779 -0.0899
              Bcc     0.0055     2.921     1.042     0.974 -0.2406  0.9241  0.2970
 
              Baa    -0.0026    -1.373    -0.490    -0.458  0.7353 -0.0631  0.6748
    65 H(1)   Bbb    -0.0011    -0.602    -0.215    -0.201  0.2035  0.9703 -0.1310
              Bcc     0.0037     1.975     0.705     0.659 -0.6465  0.2336  0.7263
 
              Baa    -0.0008    -0.435    -0.155    -0.145  0.7541 -0.3211  0.5730
    66 H(1)   Bbb    -0.0003    -0.183    -0.065    -0.061 -0.0254  0.8575  0.5139
              Bcc     0.0012     0.619     0.221     0.206  0.6563  0.4021 -0.6385
 

 ---------------------------------------------------------------------------------

 No NMR shielding tensors so no spin-rotation constants.
 Leave Link  601 at Thu May 12 14:12:19 2022, MaxMem=  6442450944 cpu:              10.0 elap:               0.7
 (Enter /home1/apps/gaussian/16rA.03/g16/l9999.exe)

 Test job not archived.
 1\1\GINC-C505-032\SP\ULC-wHPBE\def2SVP\C36H28N2(1+,2)\TG878040\12-May-
 2022\0\\#P LC-wHPBE/Def2SVP SCRF=(PCM,Solvent=acetonitrile) iop(3/107=
 0156600000, 3/108=0156600000)\\H28 C36 N2\\1,2\C,0,7.110778,3.38658,-1
 .81304\C,0,6.321064,3.589698,-0.707348\C,0,5.669219,2.569797,-0.065261
 \C,0,5.78047,1.249049,-0.519734\N,0,5.001583,0.227468,0.071773\C,0,5.5
 51874,-0.947293,0.616841\C,0,5.059885,-1.340245,1.886929\C,0,5.539328,
 -2.484031,2.480202\C,0,6.491544,-3.267573,1.873711\C,0,6.982634,-2.911
 288,0.648645\C,0,6.476726,-1.733843,0.05764\C,0,3.549659,0.214834,0.04
 8231\C,0,2.72331,1.25455,0.292287\C,0,1.321988,1.120362,0.24257\C,0,0.
 747557,-0.08995,-0.060409\C,0,-0.709446,-0.170617,-0.098427\C,0,-1.371
 194,-1.300889,0.226617\C,0,-2.772423,-1.312038,0.167758\C,0,-3.500612,
 -0.235134,-0.201768\N,0,-4.932524,-0.15684,-0.276549\C,0,-5.483069,1.0
 66255,0.281476\C,0,-6.42456,1.823722,-0.308318\C,0,-6.895398,2.977978,
 0.337798\C,0,-6.390593,3.322717,1.564252\C,0,-5.433746,2.532615,2.1381
 42\C,0,-4.946734,1.39712,1.541121\C,0,-5.77832,-1.175731,-0.669343\C,0
 ,-5.765757,-2.420355,-0.075969\C,0,-6.526297,-3.486584,-0.553593\C,0,-
 7.334053,-3.353022,-1.643653\C,0,-7.375561,-2.128386,-2.261666\C,0,-6.
 624836,-1.090756,-1.786907\C,0,-2.80778,0.942722,-0.54058\C,0,-1.44187
 ,0.933058,-0.477091\C,0,1.560992,-1.162902,-0.313026\C,0,2.920431,-1.0
 09602,-0.258994\C,0,6.581419,1.089402,-1.631821\C,0,7.240461,2.107258,
 -2.280241\H,0,7.634794,4.172511,-2.335436\H,0,6.228192,4.628875,-0.346
 123\H,0,5.098449,2.798251,0.845483\H,0,4.310959,-0.734096,2.375983\H,0
 ,5.16985,-2.802856,3.462235\H,0,6.86191,-4.169441,2.354044\H,0,7.72921
 5,-3.482316,0.121663\H,0,6.914055,-1.529106,-0.917919\H,0,3.120468,2.2
 26961,0.528268\H,0,0.745089,2.013221,0.454114\H,0,-0.843374,-2.192671,
 0.529872\H,0,-3.244644,-2.249116,0.426082\H,0,-6.848363,1.626316,-1.24
 8003\H,0,-7.654533,3.597625,-0.126557\H,0,-6.785835,4.232251,2.034724\
 H,0,-5.052998,2.831747,3.110371\H,0,-4.189913,0.783974,2.00931\H,0,-5.
 211569,-2.625441,0.826643\H,0,-6.490985,-4.459675,-0.060823\H,0,-7.916
 117,-4.190896,-1.997913\H,0,-8.01049,-2.00957,-3.123051\H,0,-6.656045,
 -0.166952,-2.320966\H,0,-3.385589,1.813738,-0.839193\H,0,-0.92118,1.87
 2985,-0.748906\H,0,1.153628,-2.118834,-0.55186\H,0,3.574913,-1.863297,
 -0.459964\H,0,6.701236,0.098967,-2.102258\H,0,7.85273,1.868739,-3.1541
 9\\Version=ES64L-G16RevA.03\State=2-A\HF=-1495.381549\S2=0.763482\S2-1
 =0.\S2A=0.750078\RMSD=4.544e-09\Dipole=1.2121034,-0.0278412,0.1173024\
 Quadrupole=50.620838,-14.3278977,-36.2929403,-4.7085161,0.2759967,-2.1
 263573\PG=C01 [X(C36H28N2)]\\@


 Where a calculator on the ENIAC is equipped with 18,000
 vacuum tubes and weighs 30 tons, computers inthe future
 may  have only 1,000 vacuum tubes and weigh only 1 1/2 tons.
              ---Popular Mechanics, March 1949
 Job cpu time:       0 days  1 hours 48 minutes 34.5 seconds.
 Elapsed time:       0 days  0 hours  7 minutes  5.1 seconds.
 File lengths (MBytes):  RWF=    789 Int=      0 D2E=      0 Chk=     34 Scr=      1
 Normal termination of Gaussian 16 at Thu May 12 14:12:20 2022.
