 Entering Gaussian System, Link 0=/mnt/gpfs3_amd/share/apps/amd/gaussian/g16-A.03/g16/g16
 Input=/scratch/rdu230/d3tales/high_throughput/runfiles//06IVBN/gaussian/gas_phase/energy/energy_cation1.com
 Output=/scratch/rdu230/d3tales/high_throughput/runfiles//06IVBN/gaussian/gas_phase/energy/energy_cation1.log
 Initial command:
 /mnt/gpfs3_amd/share/apps/amd/gaussian/g16-A.03/g16/l1.exe "/scratch/rdu230/d3tales/high_throughput/runfiles/06IVBN/gaussian/gas_phase/energy/Gau-3307316.inp" -scrdir="/scratch/rdu230/d3tales/high_throughput/runfiles/06IVBN/gaussian/gas_phase/energy/"
 Entering Link 1 = /mnt/gpfs3_amd/share/apps/amd/gaussian/g16-A.03/g16/l1.exe PID=   3307317.
  
 Copyright (c) 1988,1990,1992,1993,1995,1998,2003,2009,2016,
            Gaussian, Inc.  All Rights Reserved.
  
 This is part of the Gaussian(R) 16 program.  It is based on
 the Gaussian(R) 09 system (copyright 2009, Gaussian, Inc.),
 the Gaussian(R) 03 system (copyright 2003, Gaussian, Inc.),
 the Gaussian(R) 98 system (copyright 1998, Gaussian, Inc.),
 the Gaussian(R) 94 system (copyright 1995, Gaussian, Inc.),
 the Gaussian 92(TM) system (copyright 1992, Gaussian, Inc.),
 the Gaussian 90(TM) system (copyright 1990, Gaussian, Inc.),
 the Gaussian 88(TM) system (copyright 1988, Gaussian, Inc.),
 the Gaussian 86(TM) system (copyright 1986, Carnegie Mellon
 University), and the Gaussian 82(TM) system (copyright 1983,
 Carnegie Mellon University). Gaussian is a federally registered
 trademark of Gaussian, Inc.
  
 This software contains proprietary and confidential information,
 including trade secrets, belonging to Gaussian, Inc.
  
 This software is provided under written license and may be
 used, copied, transmitted, or stored only in accord with that
 written license.
  
 The following legend is applicable only to US Government
 contracts under FAR:
  
                    RESTRICTED RIGHTS LEGEND
  
 Use, reproduction and disclosure by the US Government is
 subject to restrictions as set forth in subparagraphs (a)
 and (c) of the Commercial Computer Software - Restricted
 Rights clause in FAR 52.227-19.
  
 Gaussian, Inc.
 340 Quinnipiac St., Bldg. 40, Wallingford CT 06492
  
  
 ---------------------------------------------------------------
 Warning -- This program may not be used in any manner that
 competes with the business of Gaussian, Inc. or will provide
 assistance to any competitor of Gaussian, Inc.  The licensee
 of this program is prohibited from giving any competitor of
 Gaussian, Inc. access to this program.  By using this program,
 the user acknowledges that Gaussian, Inc. is engaged in the
 business of creating and licensing software in the field of
 computational chemistry and represents and warrants to the
 licensee that it is not a competitor of Gaussian, Inc. and that
 it will not use this program in any manner prohibited above.
 ---------------------------------------------------------------
  

 Cite this work as:
 Gaussian 16, Revision A.03,
 M. J. Frisch, G. W. Trucks, H. B. Schlegel, G. E. Scuseria, 
 M. A. Robb, J. R. Cheeseman, G. Scalmani, V. Barone, 
 G. A. Petersson, H. Nakatsuji, X. Li, M. Caricato, A. V. Marenich, 
 J. Bloino, B. G. Janesko, R. Gomperts, B. Mennucci, H. P. Hratchian, 
 J. V. Ortiz, A. F. Izmaylov, J. L. Sonnenberg, D. Williams-Young, 
 F. Ding, F. Lipparini, F. Egidi, J. Goings, B. Peng, A. Petrone, 
 T. Henderson, D. Ranasinghe, V. G. Zakrzewski, J. Gao, N. Rega, 
 G. Zheng, W. Liang, M. Hada, M. Ehara, K. Toyota, R. Fukuda, 
 J. Hasegawa, M. Ishida, T. Nakajima, Y. Honda, O. Kitao, H. Nakai, 
 T. Vreven, K. Throssell, J. A. Montgomery, Jr., J. E. Peralta, 
 F. Ogliaro, M. J. Bearpark, J. J. Heyd, E. N. Brothers, K. N. Kudin, 
 V. N. Staroverov, T. A. Keith, R. Kobayashi, J. Normand, 
 K. Raghavachari, A. P. Rendell, J. C. Burant, S. S. Iyengar, 
 J. Tomasi, M. Cossi, J. M. Millam, M. Klene, C. Adamo, R. Cammi, 
 J. W. Ochterski, R. L. Martin, K. Morokuma, O. Farkas, 
 J. B. Foresman, and D. J. Fox, Gaussian, Inc., Wallingford CT, 2016.
 
 ******************************************
 Gaussian 16:  AM64L-G16RevA.03 25-Dec-2016
                11-May-2022 
 ******************************************
 %chk=/scratch/rdu230/d3tales/high_throughput/runfiles//06IVBN/gaussian/gas_phase
 /energy/energy_cation1.chk
 %mem=48GB
 %nprocshared=16
 Will use up to   16 processors via shared memory.
 -----------------------------------------------------------
 #P LC-wHPBE/Def2SVP iop(3/107=0225700000, 3/108=0225700000)
 -----------------------------------------------------------
 1/38=1,172=1/1;
 2/12=2,17=6,18=5,40=1/2;
 3/5=43,7=101,11=2,25=1,30=1,74=-71,107=225700000,108=225700000/1,2,3;
 4//1;
 5/5=2,38=5/2;
 6/7=2,8=2,9=2,10=2,28=1/1;
 99/5=1,9=1/99;
 Leave Link    1 at Wed May 11 06:24:20 2022, MaxMem=  6442450944 cpu:               3.0 elap:               0.2
 (Enter /mnt/gpfs3_amd/share/apps/amd/gaussian/g16-A.03/g16/l101.exe)
 ----------
 H13 C15 N2
 ----------
 Symbolic Z-matrix:
 Charge =  2 Multiplicity = 2
 N                    -2.51975   3.0203    0.10729 
 C                    -1.24603   2.71101   0.00776 
 C                     0.0773    3.05123  -0.13174 
 C                    -0.25209   1.71209  -0.04732 
 N                     0.05695   0.43377  -0.02143 
 C                    -1.00473  -0.54949   0.03888 
 C                    -2.07226  -0.47193  -0.86386 
 C                    -3.1091   -1.40791  -0.77965 
 C                    -3.06508  -2.41833   0.18606 
 C                    -1.98245  -2.49626   1.07 
 C                    -0.94662  -1.5612    1.00372 
 C                     1.44405   0.01482  -0.05653 
 C                     1.83055  -0.97823  -0.96348 
 C                     3.16876  -1.37651  -1.00309 
 C                     4.10781  -0.7851   -0.15024 
 C                     3.70811   0.20354   0.75419 
 C                     2.36962   0.60438   0.8107 
 H                    -3.22062   2.28831   0.22238 
 H                    -2.82815   3.99247   0.09079 
 H                     0.8437    3.82429  -0.23017 
 H                    -2.07822   0.2953   -1.65122 
 H                    -3.94521  -1.3587   -1.48972 
 H                    -3.87489  -3.15721   0.24408 
 H                    -1.94449  -3.29225   1.82515 
 H                    -0.09652  -1.61426   1.69625 
 H                     1.08967  -1.43506  -1.63246 
 H                     3.48099  -2.15393  -1.71253 
 H                     5.15833  -1.10147  -0.18775 
 H                     4.44023   0.66041   1.43275 
 H                     2.04774   1.36104   1.53905 
 
 ITRead=  0  0  0  0  0  0  0  0  0  0  0  0  0  0  0  0  0  0  0  0
 ITRead=  0  0  0  0  0  0  0  0  0  0
 MicOpt= -1 -1 -1 -1 -1 -1 -1 -1 -1 -1 -1 -1 -1 -1 -1 -1 -1 -1 -1 -1
 MicOpt= -1 -1 -1 -1 -1 -1 -1 -1 -1 -1
 NAtoms=     30 NQM=       30 NQMF=       0 NMMI=      0 NMMIF=      0
                NMic=       0 NMicF=      0.
                    Isotopes and Nuclear Properties:
 (Nuclear quadrupole moments (NQMom) in fm**2, nuclear magnetic moments (NMagM)
  in nuclear magnetons)

  Atom         1           2           3           4           5           6           7           8           9          10
 IAtWgt=          14          12          12          12          14          12          12          12          12          12
 AtmWgt=  14.0030740  12.0000000  12.0000000  12.0000000  14.0030740  12.0000000  12.0000000  12.0000000  12.0000000  12.0000000
 NucSpn=           2           0           0           0           2           0           0           0           0           0
 AtZEff=  -0.0000000  -0.0000000  -0.0000000  -0.0000000  -0.0000000  -0.0000000  -0.0000000  -0.0000000  -0.0000000  -0.0000000
 NQMom=    2.0440000   0.0000000   0.0000000   0.0000000   2.0440000   0.0000000   0.0000000   0.0000000   0.0000000   0.0000000
 NMagM=    0.4037610   0.0000000   0.0000000   0.0000000   0.4037610   0.0000000   0.0000000   0.0000000   0.0000000   0.0000000
 AtZNuc=   7.0000000   6.0000000   6.0000000   6.0000000   7.0000000   6.0000000   6.0000000   6.0000000   6.0000000   6.0000000

  Atom        11          12          13          14          15          16          17          18          19          20
 IAtWgt=          12          12          12          12          12          12          12           1           1           1
 AtmWgt=  12.0000000  12.0000000  12.0000000  12.0000000  12.0000000  12.0000000  12.0000000   1.0078250   1.0078250   1.0078250
 NucSpn=           0           0           0           0           0           0           0           1           1           1
 AtZEff=  -0.0000000  -0.0000000  -0.0000000  -0.0000000  -0.0000000  -0.0000000  -0.0000000  -0.0000000  -0.0000000  -0.0000000
 NQMom=    0.0000000   0.0000000   0.0000000   0.0000000   0.0000000   0.0000000   0.0000000   0.0000000   0.0000000   0.0000000
 NMagM=    0.0000000   0.0000000   0.0000000   0.0000000   0.0000000   0.0000000   0.0000000   2.7928460   2.7928460   2.7928460
 AtZNuc=   6.0000000   6.0000000   6.0000000   6.0000000   6.0000000   6.0000000   6.0000000   1.0000000   1.0000000   1.0000000

  Atom        21          22          23          24          25          26          27          28          29          30
 IAtWgt=           1           1           1           1           1           1           1           1           1           1
 AtmWgt=   1.0078250   1.0078250   1.0078250   1.0078250   1.0078250   1.0078250   1.0078250   1.0078250   1.0078250   1.0078250
 NucSpn=           1           1           1           1           1           1           1           1           1           1
 AtZEff=  -0.0000000  -0.0000000  -0.0000000  -0.0000000  -0.0000000  -0.0000000  -0.0000000  -0.0000000  -0.0000000  -0.0000000
 NQMom=    0.0000000   0.0000000   0.0000000   0.0000000   0.0000000   0.0000000   0.0000000   0.0000000   0.0000000   0.0000000
 NMagM=    2.7928460   2.7928460   2.7928460   2.7928460   2.7928460   2.7928460   2.7928460   2.7928460   2.7928460   2.7928460
 AtZNuc=   1.0000000   1.0000000   1.0000000   1.0000000   1.0000000   1.0000000   1.0000000   1.0000000   1.0000000   1.0000000
 Leave Link  101 at Wed May 11 06:24:20 2022, MaxMem=  6442450944 cpu:               1.2 elap:               0.1
 (Enter /mnt/gpfs3_amd/share/apps/amd/gaussian/g16-A.03/g16/l202.exe)
                          Input orientation:                          
 ---------------------------------------------------------------------
 Center     Atomic      Atomic             Coordinates (Angstroms)
 Number     Number       Type             X           Y           Z
 ---------------------------------------------------------------------
      1          7           0       -2.519752    3.020298    0.107294
      2          6           0       -1.246030    2.711008    0.007759
      3          6           0        0.077300    3.051229   -0.131739
      4          6           0       -0.252090    1.712085   -0.047322
      5          7           0        0.056953    0.433770   -0.021433
      6          6           0       -1.004734   -0.549494    0.038879
      7          6           0       -2.072259   -0.471928   -0.863862
      8          6           0       -3.109100   -1.407910   -0.779653
      9          6           0       -3.065084   -2.418333    0.186056
     10          6           0       -1.982448   -2.496264    1.070002
     11          6           0       -0.946615   -1.561202    1.003719
     12          6           0        1.444051    0.014822   -0.056527
     13          6           0        1.830552   -0.978230   -0.963483
     14          6           0        3.168758   -1.376510   -1.003088
     15          6           0        4.107812   -0.785095   -0.150235
     16          6           0        3.708105    0.203537    0.754186
     17          6           0        2.369620    0.604384    0.810702
     18          1           0       -3.220616    2.288308    0.222379
     19          1           0       -2.828150    3.992470    0.090787
     20          1           0        0.843701    3.824287   -0.230168
     21          1           0       -2.078219    0.295297   -1.651216
     22          1           0       -3.945206   -1.358704   -1.489720
     23          1           0       -3.874893   -3.157207    0.244083
     24          1           0       -1.944487   -3.292252    1.825150
     25          1           0       -0.096521   -1.614263    1.696246
     26          1           0        1.089668   -1.435062   -1.632456
     27          1           0        3.480987   -2.153931   -1.712530
     28          1           0        5.158333   -1.101465   -0.187746
     29          1           0        4.440228    0.660409    1.432750
     30          1           0        2.047740    1.361038    1.539049
 ---------------------------------------------------------------------
                    Distance matrix (angstroms):
                    1          2          3          4          5
     1  N    0.000000
     2  C    1.314510   0.000000
     3  C    2.608213   1.373467   0.000000
     4  C    2.622521   1.410247   1.381641   0.000000
     5  N    3.653232   2.623820   2.619861   1.315396   0.000000
     6  C    3.878579   3.269567   3.763657   2.385088   1.448318
     7  C    3.652265   3.401979   4.191568   2.957983   2.462421
     8  C    4.554452   4.588740   5.518773   4.293388   3.740398
     9  C    5.466470   5.445263   6.315986   5.002775   4.233752
    10  C    5.625652   5.365292   6.038329   4.685377   3.733026
    11  C    4.926305   4.396972   4.859237   3.507344   2.457234
    12  C    4.977093   3.809211   3.330681   2.399517   1.449410
    13  C    6.004992   4.900933   4.472385   3.523428   2.454966
    14  C    7.274889   6.100817   5.470031   4.706921   3.731500
    15  C    7.646695   6.396196   5.564418   5.025460   4.232219
    16  C    6.865771   5.602501   4.698612   4.312920   3.739720
    17  C    5.498853   4.260928   3.482812   2.972637   2.463734
    18  H    1.019933   2.030696   3.403483   3.035938   3.773753
    19  H    1.020049   2.037681   3.062204   3.443155   4.582658
    20  H    3.474636   2.379701   1.093013   2.386543   3.486854
    21  H    3.273063   3.046374   3.814477   2.813274   2.689670
    22  H    4.874221   5.107891   6.121452   5.014914   4.624511
    23  H    6.325874   6.434494   7.369243   6.076152   5.331513
    24  H    6.567362   6.311092   6.939509   5.604797   4.615070
    25  H    5.465892   4.783339   5.013837   3.758833   2.677390
    26  H    5.992068   5.033457   4.837752   3.770610   2.674776
    27  H    8.129777   6.997979   6.416983   5.626265   4.613027
    28  H    8.719459   7.455806   6.562385   6.099874   5.329980
    29  H    7.467746   6.210401   5.215246   5.031350   4.623755
    30  H    5.066068   3.875073   3.087218   2.815852   2.694098
                    6          7          8          9         10
     6  C    0.000000
     7  C    1.400203   0.000000
     8  C    2.415622   1.399354   0.000000
     9  C    2.785545   2.424154   1.398387   0.000000
    10  C    2.410198   2.801041   2.423857   1.399834   0.000000
    11  C    1.399231   2.437509   2.807179   2.427171   1.397027
    12  C    2.514777   3.640488   4.824755   5.129463   4.394942
    13  C    3.037662   3.936775   4.961711   5.230926   4.580225
    14  C    4.380375   5.320330   6.281911   6.431193   5.664492
    15  C    5.121464   6.229014   7.271030   7.364170   6.442697
    16  C    4.825927   6.040442   7.171033   7.285126   6.306430
    17  C    3.648755   4.867535   6.049374   6.250041   5.349930
    18  H    3.605125   3.180809   3.831257   4.709350   5.014345
    19  H    4.894587   4.627480   5.477290   6.415887   6.616475
    20  H    4.755950   5.230856   6.580460   7.377137   7.044638
    21  H    2.173123   1.099362   2.173304   3.422464   3.899617
    22  H    3.411424   2.164717   1.098039   2.169252   3.420327
    23  H    3.883309   3.418736   2.166683   1.097767   2.168026
    24  H    3.405381   3.898889   3.419366   2.169355   1.097855
    25  H    2.169205   3.429668   3.904906   3.426305   2.174127
    26  H    2.822076   3.393545   4.284584   4.640665   4.226976
    27  H    5.075760   5.864121   6.697466   6.820966   6.140749
    28  H    6.191884   7.289370   8.294258   8.336573   7.383641
    29  H    5.749292   6.997793   8.134189   8.207473   7.165678
    30  H    3.901056   5.109612   6.295749   6.500400   5.598321
                   11         12         13         14         15
    11  C    0.000000
    12  C    3.053401   0.000000
    13  C    3.452882   1.399323   0.000000
    14  C    4.582323   2.409647   1.396779   0.000000
    15  C    5.242250   2.782853   2.425817   1.399626   0.000000
    16  C    4.984274   2.412221   2.805738   2.423934   1.398262
    17  C    3.965405   1.398695   2.437826   2.802213   2.423915
    18  H    4.538755   5.196696   6.131137   7.467045   7.955533
    19  H    5.934382   5.839100   6.893682   8.123141   8.425603
    20  H    5.807857   3.860388   4.957398   5.749051   5.648647
    21  H    3.431588   3.876607   4.168134   5.544887   6.456560
    22  H    3.905098   5.743231   5.812148   7.130611   8.183786
    23  H    3.420393   6.200266   6.225613   7.371522   8.337025
    24  H    2.160331   5.095060   5.232790   6.149331   6.842390
    25  H    1.097756   2.845961   3.345490   4.243227   4.666201
    26  H    3.333433   2.170554   1.097784   2.173050   3.424709
    27  H    5.228097   3.405135   2.160389   1.097806   2.169651
    28  H    6.237094   3.880619   3.419222   2.167681   1.097767
    29  H    5.842748   3.407610   3.903521   3.420377   2.169291
    30  H    4.218083   2.173155   3.432494   3.900424   3.421033
                   16         17         18         19         20
    16  C    0.000000
    17  C    1.398361   0.000000
    18  H    7.255085   5.867918   0.000000
    19  H    7.584111   6.246136   1.753714   0.000000
    20  H    4.720550   3.712090   4.368375   3.689687   0.000000
    21  H    6.267051   5.093118   2.964375   4.155245   4.796954
    22  H    8.127046   7.001620   4.093533   5.690420   7.168228
    23  H    8.310034   7.311947   5.484723   7.227520   8.439864
    24  H    6.731961   5.901220   5.944748   7.540295   7.914762
    25  H    4.320538   3.433429   5.211748   6.440089   5.845760
    26  H    3.903496   3.430253   5.990196   6.912089   5.448639
    27  H    3.419638   3.900018   8.269755   8.990851   6.700132
    28  H    2.166432   3.418149   9.047958   9.476796   6.548350
    29  H    1.097809   2.162753   7.924871   8.107578   5.070545
    30  H    2.170859   1.098463   5.508995   5.726797   3.263041
                   21         22         23         24         25
    21  H    0.000000
    22  H    2.499488   0.000000
    23  H    4.328970   2.499126   0.000000
    24  H    4.997351   4.327799   2.498895   0.000000
    25  H    4.333480   5.002806   4.331922   2.499448   0.000000
    26  H    3.609709   5.037476   5.579789   4.960876   3.538278
    27  H    6.075134   7.471972   7.677491   6.576224   4.970871
    28  H    7.514012   9.199768   9.274251   7.700737   5.605879
    29  H    7.220409   9.106764   9.226503   7.519448   5.081895
    30  H    5.323263   7.244711   7.561022   6.137820   3.670829
                   26         27         28         29         30
    26  H    0.000000
    27  H    2.498318   0.000000
    28  H    4.330417   2.499228   0.000000
    29  H    5.001274   4.328214   2.499176   0.000000
    30  H    4.335265   4.998197   4.326838   2.495231   0.000000
 Stoichiometry    C15H13N2(2+,2)
 Framework group  C1[X(C15H13N2)]
 Deg. of freedom    84
 Full point group                 C1      NOp   1
 Largest Abelian subgroup         C1      NOp   1
 Largest concise Abelian subgroup C1      NOp   1
                         Standard orientation:                         
 ---------------------------------------------------------------------
 Center     Atomic      Atomic             Coordinates (Angstroms)
 Number     Number       Type             X           Y           Z
 ---------------------------------------------------------------------
      1          7           0       -2.519752    3.020298    0.107294
      2          6           0       -1.246030    2.711008    0.007759
      3          6           0        0.077300    3.051229   -0.131739
      4          6           0       -0.252090    1.712085   -0.047322
      5          7           0        0.056953    0.433770   -0.021433
      6          6           0       -1.004734   -0.549494    0.038879
      7          6           0       -2.072259   -0.471928   -0.863862
      8          6           0       -3.109100   -1.407910   -0.779653
      9          6           0       -3.065084   -2.418333    0.186056
     10          6           0       -1.982448   -2.496264    1.070002
     11          6           0       -0.946615   -1.561202    1.003719
     12          6           0        1.444051    0.014822   -0.056527
     13          6           0        1.830552   -0.978230   -0.963483
     14          6           0        3.168758   -1.376510   -1.003088
     15          6           0        4.107812   -0.785095   -0.150235
     16          6           0        3.708105    0.203537    0.754186
     17          6           0        2.369620    0.604384    0.810702
     18          1           0       -3.220616    2.288308    0.222379
     19          1           0       -2.828150    3.992470    0.090787
     20          1           0        0.843701    3.824287   -0.230168
     21          1           0       -2.078219    0.295297   -1.651216
     22          1           0       -3.945206   -1.358704   -1.489720
     23          1           0       -3.874893   -3.157207    0.244083
     24          1           0       -1.944487   -3.292252    1.825150
     25          1           0       -0.096521   -1.614263    1.696246
     26          1           0        1.089668   -1.435062   -1.632456
     27          1           0        3.480987   -2.153931   -1.712530
     28          1           0        5.158333   -1.101465   -0.187746
     29          1           0        4.440228    0.660409    1.432750
     30          1           0        2.047740    1.361038    1.539049
 ---------------------------------------------------------------------
 Rotational constants (GHZ):           0.6390557           0.3873983           0.2673943
 Leave Link  202 at Wed May 11 06:24:20 2022, MaxMem=  6442450944 cpu:               0.1 elap:               0.0
 (Enter /mnt/gpfs3_amd/share/apps/amd/gaussian/g16-A.03/g16/l301.exe)
 Standard basis: def2SVP (5D, 7F)
 Ernie: Thresh=  0.10000D-02 Tol=  0.10000D-05 Strict=F.
 There are   320 symmetry adapted cartesian basis functions of A   symmetry.
 There are   303 symmetry adapted basis functions of A   symmetry.
   303 basis functions,   516 primitive gaussians,   320 cartesian basis functions
    58 alpha electrons       57 beta electrons
       nuclear repulsion energy      1081.9857107321 Hartrees.
 IExCor=33909 DFT=T Ex+Corr=LC-wHPBE ExCW=0 ScaHFX=  1.000000
 ScaDFX=  1.000000  1.000000  1.000000  1.000000 ScalE2=  1.000000  1.000000
 IRadAn=      5 IRanWt=     -1 IRanGd=            0 ICorTp=0 IEmpDi=  4
 HFx  wShort=  0.000000 wLong=  0.225700 cFull=  0.000000 cShort=  0.000000 cLong=  1.000000
 DFx  wShort=  0.000000 wLong=  0.225700 cFull=  0.000000 cShort=  1.000000 cLong=  0.000000
 NAtoms=   30 NActive=   30 NUniq=   30 SFac= 1.00D+00 NAtFMM=   60 NAOKFM=F Big=F
 Integral buffers will be    131072 words long.
 Raffenetti 2 integral format.
 Two-electron integral symmetry is turned on.
 Leave Link  301 at Wed May 11 06:24:20 2022, MaxMem=  6442450944 cpu:               0.3 elap:               0.0
 (Enter /mnt/gpfs3_amd/share/apps/amd/gaussian/g16-A.03/g16/l302.exe)
 NPDir=0 NMtPBC=     1 NCelOv=     1 NCel=       1 NClECP=     1 NCelD=      1
         NCelK=      1 NCelE2=     1 NClLst=     1 CellRange=     0.0.
 One-electron integrals computed using PRISM.
 One-electron integral symmetry used in STVInt
   1 Symmetry operations used in ECPInt.
 ECPInt:  NShTT=   10011 NPrTT=   36575 LenC2=    9405 LenP2D=   24548.
 LDataN:  DoStor=T MaxTD1= 4 Len=   56
 NBasis=   303 RedAO= T EigKep=  2.62D-04  NBF=   303
 NBsUse=   303 1.00D-06 EigRej= -1.00D+00 NBFU=   303
 Precomputing XC quadrature grid using
 IXCGrd= 4 IRadAn=           5 IRanWt=          -1 IRanGd=           0 AccXCQ= 0.00D+00.
 Generated NRdTot=       0 NPtTot=           0 NUsed=           0 NTot=          32
 NSgBfM=   319   319   319   319   319 MxSgAt=    30 MxSgA2=    30.
 Leave Link  302 at Wed May 11 06:24:20 2022, MaxMem=  6442450944 cpu:               8.6 elap:               0.6
 (Enter /mnt/gpfs3_amd/share/apps/amd/gaussian/g16-A.03/g16/l303.exe)
 DipDrv:  MaxL=1.
 Leave Link  303 at Wed May 11 06:24:20 2022, MaxMem=  6442450944 cpu:               0.5 elap:               0.0
 (Enter /mnt/gpfs3_amd/share/apps/amd/gaussian/g16-A.03/g16/l401.exe)
 ExpMin= 1.22D-01 ExpMax= 1.71D+03 ExpMxC= 2.58D+02 IAcc=3 IRadAn=         5 AccDes= 0.00D+00
 Harris functional with IExCor=33909 and IRadAn=       5 diagonalized for initial guess.
 HarFok:  IExCor=33909 AccDes= 0.00D+00 IRadAn=         5 IDoV= 1 UseB2=F ITyADJ=14
 ICtDFT=  3500011 ScaDFX=  1.000000  1.000000  1.000000  1.000000
 FoFCou: FMM=F IPFlag=           0 FMFlag=      100000 FMFlg1=           0
         NFxFlg=           0 DoJE=T BraDBF=F KetDBF=T FulRan=T
         wScrn=  0.000000 ICntrl=       500 IOpCl=  0 I1Cent=   200000004 NGrid=           0
         NMat0=    1 NMatS0=      1 NMatT0=    0 NMatD0=    1 NMtDS0=    0 NMtDT0=    0
 Petite list used in FoFCou.
 Harris En= -673.517275421846    
 JPrj=0 DoOrth=F DoCkMO=F.
 Initial guess <Sx>= 0.0000 <Sy>= 0.0000 <Sz>= 0.5000 <S**2>= 0.7500 S= 0.5000
 Leave Link  401 at Wed May 11 06:24:23 2022, MaxMem=  6442450944 cpu:              46.7 elap:               3.0
 (Enter /mnt/gpfs3_amd/share/apps/amd/gaussian/g16-A.03/g16/l502.exe)
 Integral symmetry usage will be decided dynamically.
 UHF open shell SCF:
 Using DIIS extrapolation, IDIIS=  1040.
 NGot=  6442450944 LenX=  6442237618 LenY=  6442134777
 Requested convergence on RMS density matrix=1.00D-08 within 128 cycles.
 Requested convergence on MAX density matrix=1.00D-06.
 Requested convergence on             energy=1.00D-06.
 No special actions if energy rises.
 Fock matrices will be formed incrementally for  20 cycles.
 Integral accuracy reduced to 1.0D-05 until final iterations.

 Cycle   1  Pass 0  IDiag  1:
 FoFJK:  IHMeth= 1 ICntrl=       0 DoSepK=T KAlg= 0 I1Cent=           0 FoldK=F
 IRaf=         1 NMat=       1 IRICut=       1 DoRegI=T DoRafI=F ISym2E= 0 IDoP0=0 IntGTp=1.
 FoFCou: FMM=F IPFlag=           0 FMFlag=      100000 FMFlg1=           0
         NFxFlg=           0 DoJE=T BraDBF=F KetDBF=F FulRan=T
         wScrn=  0.000000 ICntrl=       500 IOpCl=  0 I1Cent=           0 NGrid=           0
         NMat0=    1 NMatS0=      1 NMatT0=    0 NMatD0=    1 NMtDS0=    0 NMtDT0=    0
 Symmetry not used in FoFCou.
 E= -686.866066653325    
 DIIS: error= 3.11D-02 at cycle   1 NSaved=   1.
 NSaved= 1 IEnMin= 1 EnMin= -686.866066653325     IErMin= 1 ErrMin= 3.11D-02
 ErrMax= 3.11D-02  0.00D+00 EMaxC= 1.00D-01 BMatC= 8.39D-01 BMatP= 8.39D-01
 IDIUse=3 WtCom= 6.89D-01 WtEn= 3.11D-01
 Coeff-Com:  0.100D+01
 Coeff-En:   0.100D+01
 Coeff:      0.100D+01
 Gap=     0.512 Goal=   None    Shift=    0.000
 Gap=     0.128 Goal=   None    Shift=    0.000
 GapD=    0.128 DampG=1.000 DampE=0.500 DampFc=0.5000 IDamp=-1.
 Damping current iteration by 5.00D-01
 RMSDP=4.91D-03 MaxDP=2.03D-01              OVMax= 4.86D-01

 Cycle   2  Pass 0  IDiag  1:
 RMSU=  2.40D-03    CP:  9.75D-01
 E= -686.942132227680     Delta-E=       -0.076065574354 Rises=F Damp=T
 DIIS: error= 1.15D-02 at cycle   2 NSaved=   2.
 NSaved= 2 IEnMin= 2 EnMin= -686.942132227680     IErMin= 2 ErrMin= 1.15D-02
 ErrMax= 1.15D-02  0.00D+00 EMaxC= 1.00D-01 BMatC= 1.30D-01 BMatP= 8.39D-01
 IDIUse=3 WtCom= 8.85D-01 WtEn= 1.15D-01
 Coeff-Com:  0.214D+00 0.786D+00
 Coeff-En:   0.303D+00 0.697D+00
 Coeff:      0.224D+00 0.776D+00
 Gap=     0.343 Goal=   None    Shift=    0.000
 Gap=     0.132 Goal=   None    Shift=    0.000
 RMSDP=1.40D-03 MaxDP=4.99D-02 DE=-7.61D-02 OVMax= 2.80D-01

 Cycle   3  Pass 0  IDiag  1:
 RMSU=  1.34D-03    CP:  9.56D-01  1.01D+00
 E= -687.108070995943     Delta-E=       -0.165938768263 Rises=F Damp=F
 DIIS: error= 4.88D-03 at cycle   3 NSaved=   3.
 NSaved= 3 IEnMin= 3 EnMin= -687.108070995943     IErMin= 3 ErrMin= 4.88D-03
 ErrMax= 4.88D-03  0.00D+00 EMaxC= 1.00D-01 BMatC= 3.46D-02 BMatP= 1.30D-01
 IDIUse=3 WtCom= 9.51D-01 WtEn= 4.88D-02
 Coeff-Com:  0.502D-01 0.324D+00 0.626D+00
 Coeff-En:   0.000D+00 0.000D+00 0.100D+01
 Coeff:      0.477D-01 0.308D+00 0.645D+00
 Gap=     0.326 Goal=   None    Shift=    0.000
 Gap=     0.150 Goal=   None    Shift=    0.000
 RMSDP=4.53D-04 MaxDP=2.04D-02 DE=-1.66D-01 OVMax= 4.09D-02

 Cycle   4  Pass 0  IDiag  1:
 RMSU=  4.18D-04    CP:  9.58D-01  1.02D+00  8.77D-01
 E= -687.117409307548     Delta-E=       -0.009338311605 Rises=F Damp=F
 DIIS: error= 2.71D-03 at cycle   4 NSaved=   4.
 NSaved= 4 IEnMin= 4 EnMin= -687.117409307548     IErMin= 4 ErrMin= 2.71D-03
 ErrMax= 2.71D-03  0.00D+00 EMaxC= 1.00D-01 BMatC= 4.55D-03 BMatP= 3.46D-02
 IDIUse=3 WtCom= 9.73D-01 WtEn= 2.71D-02
 Coeff-Com:  0.105D-01 0.143D-01 0.246D+00 0.729D+00
 Coeff-En:   0.000D+00 0.000D+00 0.000D+00 0.100D+01
 Coeff:      0.102D-01 0.139D-01 0.240D+00 0.736D+00
 Gap=     0.322 Goal=   None    Shift=    0.000
 Gap=     0.158 Goal=   None    Shift=    0.000
 RMSDP=1.83D-04 MaxDP=5.98D-03 DE=-9.34D-03 OVMax= 2.72D-02

 Cycle   5  Pass 0  IDiag  1:
 RMSU=  1.45D-04    CP:  9.56D-01  1.00D+00  9.47D-01  9.31D-01
 E= -687.119313595440     Delta-E=       -0.001904287892 Rises=F Damp=F
 DIIS: error= 1.20D-03 at cycle   5 NSaved=   5.
 NSaved= 5 IEnMin= 5 EnMin= -687.119313595440     IErMin= 5 ErrMin= 1.20D-03
 ErrMax= 1.20D-03  0.00D+00 EMaxC= 1.00D-01 BMatC= 5.64D-04 BMatP= 4.55D-03
 IDIUse=3 WtCom= 9.88D-01 WtEn= 1.20D-02
 Coeff-Com:  0.250D-02-0.352D-01 0.520D-02 0.235D+00 0.792D+00
 Coeff-En:   0.000D+00 0.000D+00 0.000D+00 0.000D+00 0.100D+01
 Coeff:      0.247D-02-0.347D-01 0.514D-02 0.233D+00 0.795D+00
 Gap=     0.326 Goal=   None    Shift=    0.000
 Gap=     0.161 Goal=   None    Shift=    0.000
 RMSDP=9.68D-05 MaxDP=3.14D-03 DE=-1.90D-03 OVMax= 2.01D-02

 Cycle   6  Pass 0  IDiag  1:
 RMSU=  6.12D-05    CP:  9.56D-01  9.96D-01  9.57D-01  1.06D+00  1.31D+00
 E= -687.119810942979     Delta-E=       -0.000497347539 Rises=F Damp=F
 DIIS: error= 8.90D-04 at cycle   6 NSaved=   6.
 NSaved= 6 IEnMin= 6 EnMin= -687.119810942979     IErMin= 6 ErrMin= 8.90D-04
 ErrMax= 8.90D-04  0.00D+00 EMaxC= 1.00D-01 BMatC= 1.55D-04 BMatP= 5.64D-04
 IDIUse=3 WtCom= 9.91D-01 WtEn= 8.90D-03
 Coeff-Com:  0.114D-02-0.200D-01-0.561D-01-0.932D-01 0.215D+00 0.953D+00
 Coeff-En:   0.000D+00 0.000D+00 0.000D+00 0.000D+00 0.000D+00 0.100D+01
 Coeff:      0.113D-02-0.198D-01-0.556D-01-0.923D-01 0.213D+00 0.953D+00
 Gap=     0.328 Goal=   None    Shift=    0.000
 Gap=     0.162 Goal=   None    Shift=    0.000
 RMSDP=7.99D-05 MaxDP=3.81D-03 DE=-4.97D-04 OVMax= 1.90D-02

 Cycle   7  Pass 0  IDiag  1:
 RMSU=  3.54D-05    CP:  9.56D-01  9.89D-01  9.62D-01  1.14D+00  1.68D+00
                    CP:  1.50D+00
 E= -687.120079567523     Delta-E=       -0.000268624544 Rises=F Damp=F
 DIIS: error= 5.02D-04 at cycle   7 NSaved=   7.
 NSaved= 7 IEnMin= 7 EnMin= -687.120079567523     IErMin= 7 ErrMin= 5.02D-04
 ErrMax= 5.02D-04  0.00D+00 EMaxC= 1.00D-01 BMatC= 6.35D-05 BMatP= 1.55D-04
 IDIUse=3 WtCom= 9.95D-01 WtEn= 5.02D-03
 Coeff-Com:  0.186D-02 0.378D-02-0.101D-01-0.799D-01-0.229D+00 0.336D+00
 Coeff-Com:  0.977D+00
 Coeff-En:   0.000D+00 0.000D+00 0.000D+00 0.000D+00 0.000D+00 0.000D+00
 Coeff-En:   0.100D+01
 Coeff:      0.185D-02 0.376D-02-0.100D-01-0.795D-01-0.228D+00 0.334D+00
 Coeff:      0.977D+00
 Gap=     0.329 Goal=   None    Shift=    0.000
 Gap=     0.162 Goal=   None    Shift=    0.000
 RMSDP=5.73D-05 MaxDP=2.59D-03 DE=-2.69D-04 OVMax= 1.48D-02

 Cycle   8  Pass 0  IDiag  1:
 RMSU=  1.88D-05    CP:  9.56D-01  9.85D-01  9.60D-01  1.18D+00  1.91D+00
                    CP:  2.02D+00  1.54D+00
 E= -687.120198630638     Delta-E=       -0.000119063115 Rises=F Damp=F
 DIIS: error= 3.00D-04 at cycle   8 NSaved=   8.
 NSaved= 8 IEnMin= 8 EnMin= -687.120198630638     IErMin= 8 ErrMin= 3.00D-04
 ErrMax= 3.00D-04  0.00D+00 EMaxC= 1.00D-01 BMatC= 1.92D-05 BMatP= 6.35D-05
 IDIUse=3 WtCom= 9.97D-01 WtEn= 3.00D-03
 Coeff-Com:  0.877D-03 0.427D-02 0.143D-01 0.105D-01-0.142D+00-0.156D+00
 Coeff-Com:  0.199D+00 0.107D+01
 Coeff-En:   0.000D+00 0.000D+00 0.000D+00 0.000D+00 0.000D+00 0.000D+00
 Coeff-En:   0.000D+00 0.100D+01
 Coeff:      0.875D-03 0.426D-02 0.143D-01 0.105D-01-0.142D+00-0.155D+00
 Coeff:      0.198D+00 0.107D+01
 Gap=     0.329 Goal=   None    Shift=    0.000
 Gap=     0.162 Goal=   None    Shift=    0.000
 RMSDP=4.03D-05 MaxDP=1.91D-03 DE=-1.19D-04 OVMax= 9.13D-03

 Cycle   9  Pass 0  IDiag  1:
 RMSU=  1.13D-05    CP:  9.56D-01  9.83D-01  9.59D-01  1.21D+00  2.04D+00
                    CP:  2.36D+00  2.07D+00  1.68D+00
 E= -687.120249726213     Delta-E=       -0.000051095575 Rises=F Damp=F
 DIIS: error= 2.38D-04 at cycle   9 NSaved=   9.
 NSaved= 9 IEnMin= 9 EnMin= -687.120249726213     IErMin= 9 ErrMin= 2.38D-04
 ErrMax= 2.38D-04  0.00D+00 EMaxC= 1.00D-01 BMatC= 6.37D-06 BMatP= 1.92D-05
 IDIUse=3 WtCom= 9.98D-01 WtEn= 2.38D-03
 Coeff-Com:  0.117D-03-0.113D-02 0.879D-02 0.385D-01 0.644D-01-0.130D+00
 Coeff-Com: -0.401D+00 0.897D-01 0.133D+01
 Coeff-En:   0.000D+00 0.000D+00 0.000D+00 0.000D+00 0.000D+00 0.000D+00
 Coeff-En:   0.000D+00 0.000D+00 0.100D+01
 Coeff:      0.117D-03-0.112D-02 0.877D-02 0.384D-01 0.643D-01-0.129D+00
 Coeff:     -0.400D+00 0.895D-01 0.133D+01
 Gap=     0.330 Goal=   None    Shift=    0.000
 Gap=     0.162 Goal=   None    Shift=    0.000
 RMSDP=3.31D-05 MaxDP=1.47D-03 DE=-5.11D-05 OVMax= 9.30D-03

 Cycle  10  Pass 0  IDiag  1:
 RMSU=  7.27D-06    CP:  9.56D-01  9.81D-01  9.58D-01  1.22D+00  2.13D+00
                    CP:  2.61D+00  2.52D+00  2.54D+00  1.94D+00
 E= -687.120275835265     Delta-E=       -0.000026109052 Rises=F Damp=F
 DIIS: error= 1.57D-04 at cycle  10 NSaved=  10.
 NSaved=10 IEnMin=10 EnMin= -687.120275835265     IErMin=10 ErrMin= 1.57D-04
 ErrMax= 1.57D-04  0.00D+00 EMaxC= 1.00D-01 BMatC= 2.39D-06 BMatP= 6.37D-06
 IDIUse=3 WtCom= 9.98D-01 WtEn= 1.57D-03
 Coeff-Com:  0.795D-04-0.163D-02 0.299D-03 0.113D-01 0.512D-01-0.524D-04
 Coeff-Com: -0.184D+00-0.238D+00 0.488D+00 0.873D+00
 Coeff-En:   0.000D+00 0.000D+00 0.000D+00 0.000D+00 0.000D+00 0.000D+00
 Coeff-En:   0.000D+00 0.000D+00 0.000D+00 0.100D+01
 Coeff:      0.794D-04-0.163D-02 0.299D-03 0.113D-01 0.512D-01-0.523D-04
 Coeff:     -0.184D+00-0.238D+00 0.487D+00 0.873D+00
 Gap=     0.330 Goal=   None    Shift=    0.000
 Gap=     0.162 Goal=   None    Shift=    0.000
 RMSDP=1.37D-05 MaxDP=4.62D-04 DE=-2.61D-05 OVMax= 4.55D-03

 Cycle  11  Pass 0  IDiag  1:
 RMSU=  3.80D-06    CP:  9.56D-01  9.81D-01  9.58D-01  1.23D+00  2.15D+00
                    CP:  2.68D+00  2.68D+00  2.89D+00  2.52D+00  1.55D+00
 E= -687.120282747119     Delta-E=       -0.000006911854 Rises=F Damp=F
 DIIS: error= 1.23D-04 at cycle  11 NSaved=  11.
 NSaved=11 IEnMin=11 EnMin= -687.120282747119     IErMin=11 ErrMin= 1.23D-04
 ErrMax= 1.23D-04  0.00D+00 EMaxC= 1.00D-01 BMatC= 9.04D-07 BMatP= 2.39D-06
 IDIUse=3 WtCom= 9.99D-01 WtEn= 1.23D-03
 Coeff-Com:  0.167D-03-0.245D-03-0.320D-02-0.138D-01-0.211D-01 0.632D-01
 Coeff-Com:  0.132D+00-0.813D-01-0.456D+00 0.906D-01 0.129D+01
 Coeff-En:   0.000D+00 0.000D+00 0.000D+00 0.000D+00 0.000D+00 0.000D+00
 Coeff-En:   0.000D+00 0.000D+00 0.000D+00 0.000D+00 0.100D+01
 Coeff:      0.167D-03-0.245D-03-0.319D-02-0.137D-01-0.210D-01 0.631D-01
 Coeff:      0.131D+00-0.812D-01-0.455D+00 0.905D-01 0.129D+01
 Gap=     0.330 Goal=   None    Shift=    0.000
 Gap=     0.162 Goal=   None    Shift=    0.000
 RMSDP=1.26D-05 MaxDP=3.33D-04 DE=-6.91D-06 OVMax= 4.66D-03

 Cycle  12  Pass 0  IDiag  1:
 RMSU=  4.36D-06    CP:  9.56D-01  9.80D-01  9.58D-01  1.23D+00  2.17D+00
                    CP:  2.73D+00  2.77D+00  3.00D+00  3.00D+00  2.41D+00
                    CP:  1.96D+00
 E= -687.120286731059     Delta-E=       -0.000003983939 Rises=F Damp=F
 DIIS: error= 8.58D-05 at cycle  12 NSaved=  12.
 NSaved=12 IEnMin=12 EnMin= -687.120286731059     IErMin=12 ErrMin= 8.58D-05
 ErrMax= 8.58D-05  0.00D+00 EMaxC= 1.00D-01 BMatC= 4.32D-07 BMatP= 9.04D-07
 IDIUse=1 WtCom= 1.00D+00 WtEn= 0.00D+00
 Coeff-Com:  0.724D-05 0.309D-03 0.142D-03-0.238D-02-0.169D-01 0.403D-02
 Coeff-Com:  0.336D-01 0.694D-01-0.100D+00-0.330D+00 0.343D-01 0.131D+01
 Coeff:      0.724D-05 0.309D-03 0.142D-03-0.238D-02-0.169D-01 0.403D-02
 Coeff:      0.336D-01 0.694D-01-0.100D+00-0.330D+00 0.343D-01 0.131D+01
 Gap=     0.330 Goal=   None    Shift=    0.000
 Gap=     0.162 Goal=   None    Shift=    0.000
 RMSDP=9.64D-06 MaxDP=2.59D-04 DE=-3.98D-06 OVMax= 3.66D-03

 Initial convergence to 1.0D-05 achieved.  Increase integral accuracy.
 Cycle  13  Pass 1  IDiag  1:
 E= -687.120300021123     Delta-E=       -0.000013290065 Rises=F Damp=F
 DIIS: error= 1.23D-04 at cycle   1 NSaved=   1.
 NSaved= 1 IEnMin= 1 EnMin= -687.120300021123     IErMin= 1 ErrMin= 1.23D-04
 ErrMax= 1.23D-04  0.00D+00 EMaxC= 1.00D-01 BMatC= 6.70D-06 BMatP= 6.70D-06
 IDIUse=3 WtCom= 9.99D-01 WtEn= 1.23D-03
 Coeff-Com:  0.100D+01
 Coeff-En:   0.100D+01
 Coeff:      0.100D+01
 Gap=     0.330 Goal=   None    Shift=    0.000
 Gap=     0.162 Goal=   None    Shift=    0.000
 RMSDP=9.64D-06 MaxDP=2.59D-04 DE=-1.33D-05 OVMax= 1.06D-03

 Cycle  14  Pass 1  IDiag  1:
 RMSU=  9.00D-05    CP:  1.00D+00
 E= -687.120302112494     Delta-E=       -0.000002091371 Rises=F Damp=F
 DIIS: error= 5.08D-05 at cycle   2 NSaved=   2.
 NSaved= 2 IEnMin= 2 EnMin= -687.120302112494     IErMin= 2 ErrMin= 5.08D-05
 ErrMax= 5.08D-05  0.00D+00 EMaxC= 1.00D-01 BMatC= 2.56D-07 BMatP= 6.70D-06
 IDIUse=1 WtCom= 1.00D+00 WtEn= 0.00D+00
 Coeff-Com: -0.149D-01 0.101D+01
 Coeff:     -0.149D-01 0.101D+01
 Gap=     0.330 Goal=   None    Shift=    0.000
 Gap=     0.162 Goal=   None    Shift=    0.000
 RMSDP=6.43D-06 MaxDP=1.57D-04 DE=-2.09D-06 OVMax= 9.22D-04

 Cycle  15  Pass 1  IDiag  1:
 RMSU=  2.97D-06    CP:  1.00D+00  1.06D+00
 E= -687.120302606073     Delta-E=       -0.000000493579 Rises=F Damp=F
 DIIS: error= 4.60D-05 at cycle   3 NSaved=   3.
 NSaved= 3 IEnMin= 3 EnMin= -687.120302606073     IErMin= 3 ErrMin= 4.60D-05
 ErrMax= 4.60D-05  0.00D+00 EMaxC= 1.00D-01 BMatC= 2.92D-07 BMatP= 2.56D-07
 IDIUse=1 WtCom= 1.00D+00 WtEn= 0.00D+00
 Coeff-Com: -0.295D-01 0.550D+00 0.479D+00
 Coeff:     -0.295D-01 0.550D+00 0.479D+00
 Gap=     0.330 Goal=   None    Shift=    0.000
 Gap=     0.162 Goal=   None    Shift=    0.000
 RMSDP=1.30D-06 MaxDP=4.58D-05 DE=-4.94D-07 OVMax= 4.03D-04

 Cycle  16  Pass 1  IDiag  1:
 RMSU=  1.05D-06    CP:  1.00D+00  1.07D+00  1.24D+00
 E= -687.120302840014     Delta-E=       -0.000000233941 Rises=F Damp=F
 DIIS: error= 4.18D-05 at cycle   4 NSaved=   4.
 NSaved= 4 IEnMin= 4 EnMin= -687.120302840014     IErMin= 4 ErrMin= 4.18D-05
 ErrMax= 4.18D-05  0.00D+00 EMaxC= 1.00D-01 BMatC= 9.23D-08 BMatP= 2.56D-07
 IDIUse=1 WtCom= 1.00D+00 WtEn= 0.00D+00
 Coeff-Com:  0.305D-01-0.836D+00-0.486D+00 0.229D+01
 Coeff:      0.305D-01-0.836D+00-0.486D+00 0.229D+01
 Gap=     0.330 Goal=   None    Shift=    0.000
 Gap=     0.162 Goal=   None    Shift=    0.000
 RMSDP=4.99D-06 MaxDP=1.43D-04 DE=-2.34D-07 OVMax= 1.79D-03

 Cycle  17  Pass 1  IDiag  1:
 RMSU=  1.61D-06    CP:  1.00D+00  1.07D+00  2.61D+00  3.00D+00
 E= -687.120303552397     Delta-E=       -0.000000712383 Rises=F Damp=F
 DIIS: error= 2.99D-05 at cycle   5 NSaved=   5.
 NSaved= 5 IEnMin= 5 EnMin= -687.120303552397     IErMin= 5 ErrMin= 2.99D-05
 ErrMax= 2.99D-05  0.00D+00 EMaxC= 1.00D-01 BMatC= 5.96D-08 BMatP= 9.23D-08
 IDIUse=1 WtCom= 1.00D+00 WtEn= 0.00D+00
 Coeff-Com:  0.519D-01-0.119D+01-0.862D+00 0.188D+01 0.112D+01
 Coeff:      0.519D-01-0.119D+01-0.862D+00 0.188D+01 0.112D+01
 Gap=     0.330 Goal=   None    Shift=    0.000
 Gap=     0.162 Goal=   None    Shift=    0.000
 RMSDP=6.22D-06 MaxDP=1.85D-04 DE=-7.12D-07 OVMax= 2.24D-03

 Cycle  18  Pass 1  IDiag  1:
 RMSU=  4.82D-06    CP:  1.00D+00  1.07D+00  3.00D+00  3.00D+00  2.43D+00
 E= -687.120304078064     Delta-E=       -0.000000525667 Rises=F Damp=F
 DIIS: error= 1.22D-05 at cycle   6 NSaved=   6.
 NSaved= 6 IEnMin= 6 EnMin= -687.120304078064     IErMin= 6 ErrMin= 1.22D-05
 ErrMax= 1.22D-05  0.00D+00 EMaxC= 1.00D-01 BMatC= 1.77D-08 BMatP= 5.96D-08
 IDIUse=1 WtCom= 1.00D+00 WtEn= 0.00D+00
 Coeff-Com:  0.505D-02-0.579D-01-0.964D-01-0.326D+00 0.467D+00 0.101D+01
 Coeff:      0.505D-02-0.579D-01-0.964D-01-0.326D+00 0.467D+00 0.101D+01
 Gap=     0.330 Goal=   None    Shift=    0.000
 Gap=     0.162 Goal=   None    Shift=    0.000
 RMSDP=3.02D-06 MaxDP=9.03D-05 DE=-5.26D-07 OVMax= 1.05D-03

 Cycle  19  Pass 1  IDiag  1:
 RMSU=  7.27D-07    CP:  1.00D+00  1.07D+00  3.00D+00  3.00D+00  3.00D+00
                    CP:  1.54D+00
 E= -687.120304190395     Delta-E=       -0.000000112331 Rises=F Damp=F
 DIIS: error= 5.19D-06 at cycle   7 NSaved=   7.
 NSaved= 7 IEnMin= 7 EnMin= -687.120304190395     IErMin= 7 ErrMin= 5.19D-06
 ErrMax= 5.19D-06  0.00D+00 EMaxC= 1.00D-01 BMatC= 6.60D-09 BMatP= 1.77D-08
 IDIUse=1 WtCom= 1.00D+00 WtEn= 0.00D+00
 Coeff-Com: -0.886D-02 0.234D+00 0.141D+00-0.625D+00 0.162D-01 0.534D+00
 Coeff-Com:  0.709D+00
 Coeff:     -0.886D-02 0.234D+00 0.141D+00-0.625D+00 0.162D-01 0.534D+00
 Coeff:      0.709D+00
 Gap=     0.330 Goal=   None    Shift=    0.000
 Gap=     0.162 Goal=   None    Shift=    0.000
 RMSDP=1.14D-06 MaxDP=3.60D-05 DE=-1.12D-07 OVMax= 3.79D-04

 Cycle  20  Pass 1  IDiag  1:
 RMSU=  3.78D-07    CP:  1.00D+00  1.07D+00  3.00D+00  3.00D+00  3.00D+00
                    CP:  1.74D+00  1.63D+00
 E= -687.120304212653     Delta-E=       -0.000000022258 Rises=F Damp=F
 DIIS: error= 3.05D-06 at cycle   8 NSaved=   8.
 NSaved= 8 IEnMin= 8 EnMin= -687.120304212653     IErMin= 8 ErrMin= 3.05D-06
 ErrMax= 3.05D-06  0.00D+00 EMaxC= 1.00D-01 BMatC= 2.57D-09 BMatP= 6.60D-09
 IDIUse=1 WtCom= 1.00D+00 WtEn= 0.00D+00
 Coeff-Com: -0.102D-03-0.351D-01 0.114D-01 0.349D+00-0.233D+00-0.755D+00
 Coeff-Com:  0.337D-01 0.163D+01
 Coeff:     -0.102D-03-0.351D-01 0.114D-01 0.349D+00-0.233D+00-0.755D+00
 Coeff:      0.337D-01 0.163D+01
 Gap=     0.330 Goal=   None    Shift=    0.000
 Gap=     0.162 Goal=   None    Shift=    0.000
 RMSDP=8.49D-07 MaxDP=2.76D-05 DE=-2.23D-08 OVMax= 2.72D-04

 Cycle  21  Pass 1  IDiag  1:
 RMSU=  3.91D-07    CP:  1.00D+00  1.07D+00  3.00D+00  3.00D+00  3.00D+00
                    CP:  1.86D+00  2.26D+00  1.60D+00
 E= -687.120304224810     Delta-E=       -0.000000012157 Rises=F Damp=F
 DIIS: error= 1.95D-06 at cycle   9 NSaved=   9.
 NSaved= 9 IEnMin= 9 EnMin= -687.120304224810     IErMin= 9 ErrMin= 1.95D-06
 ErrMax= 1.95D-06  0.00D+00 EMaxC= 1.00D-01 BMatC= 7.93D-10 BMatP= 2.57D-09
 IDIUse=1 WtCom= 1.00D+00 WtEn= 0.00D+00
 Coeff-Com:  0.334D-02-0.106D+00-0.525D-01 0.414D+00-0.124D+00-0.570D+00
 Coeff-Com: -0.215D+00 0.721D+00 0.929D+00
 Coeff:      0.334D-02-0.106D+00-0.525D-01 0.414D+00-0.124D+00-0.570D+00
 Coeff:     -0.215D+00 0.721D+00 0.929D+00
 Gap=     0.330 Goal=   None    Shift=    0.000
 Gap=     0.162 Goal=   None    Shift=    0.000
 RMSDP=4.43D-07 MaxDP=1.41D-05 DE=-1.22D-08 OVMax= 1.48D-04

 Cycle  22  Pass 1  IDiag  1:
 RMSU=  8.14D-08    CP:  1.00D+00  1.07D+00  3.00D+00  3.00D+00  3.00D+00
                    CP:  1.91D+00  2.55D+00  1.92D+00  1.65D+00
 E= -687.120304228205     Delta-E=       -0.000000003395 Rises=F Damp=F
 DIIS: error= 1.25D-06 at cycle  10 NSaved=  10.
 NSaved=10 IEnMin=10 EnMin= -687.120304228205     IErMin=10 ErrMin= 1.25D-06
 ErrMax= 1.25D-06  0.00D+00 EMaxC= 1.00D-01 BMatC= 2.26D-10 BMatP= 7.93D-10
 IDIUse=1 WtCom= 1.00D+00 WtEn= 0.00D+00
 Coeff-Com:  0.451D-03-0.527D-02-0.143D-01-0.221D-01 0.308D-01 0.112D+00
 Coeff-Com: -0.381D-01-0.295D+00 0.119D+00 0.111D+01
 Coeff:      0.451D-03-0.527D-02-0.143D-01-0.221D-01 0.308D-01 0.112D+00
 Coeff:     -0.381D-01-0.295D+00 0.119D+00 0.111D+01
 Gap=     0.330 Goal=   None    Shift=    0.000
 Gap=     0.162 Goal=   None    Shift=    0.000
 RMSDP=2.03D-07 MaxDP=5.70D-06 DE=-3.39D-09 OVMax= 7.41D-05

 Cycle  23  Pass 1  IDiag  1:
 RMSU=  6.49D-08    CP:  1.00D+00  1.07D+00  3.00D+00  3.00D+00  3.00D+00
                    CP:  1.93D+00  2.65D+00  2.07D+00  1.97D+00  1.60D+00
 E= -687.120304229184     Delta-E=       -0.000000000979 Rises=F Damp=F
 DIIS: error= 8.75D-07 at cycle  11 NSaved=  11.
 NSaved=11 IEnMin=11 EnMin= -687.120304229184     IErMin=11 ErrMin= 8.75D-07
 ErrMax= 8.75D-07  0.00D+00 EMaxC= 1.00D-01 BMatC= 1.11D-10 BMatP= 2.26D-10
 IDIUse=1 WtCom= 1.00D+00 WtEn= 0.00D+00
 Coeff-Com: -0.141D-02 0.485D-01 0.154D-01-0.197D+00 0.674D-01 0.315D+00
 Coeff-Com:  0.810D-01-0.443D+00-0.383D+00 0.378D+00 0.112D+01
 Coeff:     -0.141D-02 0.485D-01 0.154D-01-0.197D+00 0.674D-01 0.315D+00
 Coeff:      0.810D-01-0.443D+00-0.383D+00 0.378D+00 0.112D+01
 Gap=     0.330 Goal=   None    Shift=    0.000
 Gap=     0.162 Goal=   None    Shift=    0.000
 RMSDP=1.43D-07 MaxDP=2.96D-06 DE=-9.79D-10 OVMax= 4.97D-05

 Cycle  24  Pass 1  IDiag  1:
 RMSU=  3.23D-08    CP:  1.00D+00  1.07D+00  3.00D+00  3.00D+00  3.00D+00
                    CP:  1.94D+00  2.70D+00  2.17D+00  2.21D+00  2.34D+00
                    CP:  1.94D+00
 E= -687.120304229720     Delta-E=       -0.000000000536 Rises=F Damp=F
 DIIS: error= 5.87D-07 at cycle  12 NSaved=  12.
 NSaved=12 IEnMin=12 EnMin= -687.120304229720     IErMin=12 ErrMin= 5.87D-07
 ErrMax= 5.87D-07  0.00D+00 EMaxC= 1.00D-01 BMatC= 4.79D-11 BMatP= 1.11D-10
 IDIUse=1 WtCom= 1.00D+00 WtEn= 0.00D+00
 Coeff-Com: -0.551D-03 0.148D-01 0.618D-02-0.377D-01 0.421D-02 0.350D-01
 Coeff-Com:  0.304D-01-0.121D-03-0.130D+00-0.392D+00 0.294D+00 0.118D+01
 Coeff:     -0.551D-03 0.148D-01 0.618D-02-0.377D-01 0.421D-02 0.350D-01
 Coeff:      0.304D-01-0.121D-03-0.130D+00-0.392D+00 0.294D+00 0.118D+01
 Gap=     0.330 Goal=   None    Shift=    0.000
 Gap=     0.162 Goal=   None    Shift=    0.000
 RMSDP=1.14D-07 MaxDP=2.44D-06 DE=-5.36D-10 OVMax= 4.15D-05

 Cycle  25  Pass 1  IDiag  1:
 RMSU=  2.36D-08    CP:  1.00D+00  1.07D+00  3.00D+00  3.00D+00  3.00D+00
                    CP:  1.94D+00  2.74D+00  2.24D+00  2.38D+00  2.86D+00
                    CP:  2.84D+00  1.86D+00
 E= -687.120304229969     Delta-E=       -0.000000000249 Rises=F Damp=F
 DIIS: error= 3.48D-07 at cycle  13 NSaved=  13.
 NSaved=13 IEnMin=13 EnMin= -687.120304229969     IErMin=13 ErrMin= 3.48D-07
 ErrMax= 3.48D-07  0.00D+00 EMaxC= 1.00D-01 BMatC= 1.96D-11 BMatP= 4.79D-11
 IDIUse=1 WtCom= 1.00D+00 WtEn= 0.00D+00
 Coeff-Com:  0.498D-03-0.182D-01-0.816D-02 0.831D-01-0.300D-01-0.133D+00
 Coeff-Com: -0.313D-01 0.205D+00 0.164D+00-0.314D+00-0.447D+00 0.384D+00
 Coeff-Com:  0.115D+01
 Coeff:      0.498D-03-0.182D-01-0.816D-02 0.831D-01-0.300D-01-0.133D+00
 Coeff:     -0.313D-01 0.205D+00 0.164D+00-0.314D+00-0.447D+00 0.384D+00
 Coeff:      0.115D+01
 Gap=     0.330 Goal=   None    Shift=    0.000
 Gap=     0.162 Goal=   None    Shift=    0.000
 RMSDP=7.22D-08 MaxDP=1.40D-06 DE=-2.49D-10 OVMax= 2.40D-05

 Cycle  26  Pass 1  IDiag  1:
 RMSU=  3.90D-08    CP:  1.00D+00  1.07D+00  3.00D+00  3.00D+00  3.00D+00
                    CP:  1.94D+00  2.75D+00  2.28D+00  2.45D+00  3.00D+00
                    CP:  3.00D+00  2.71D+00  1.80D+00
 E= -687.120304230088     Delta-E=       -0.000000000119 Rises=F Damp=F
 DIIS: error= 1.81D-07 at cycle  14 NSaved=  14.
 NSaved=14 IEnMin=14 EnMin= -687.120304230088     IErMin=14 ErrMin= 1.81D-07
 ErrMax= 1.81D-07  0.00D+00 EMaxC= 1.00D-01 BMatC= 6.05D-12 BMatP= 1.96D-11
 IDIUse=1 WtCom= 1.00D+00 WtEn= 0.00D+00
 Coeff-Com:  0.242D-03-0.677D-02-0.438D-02 0.219D-01-0.455D-02-0.198D-01
 Coeff-Com: -0.174D-01 0.133D-01 0.779D-01 0.103D+00-0.174D+00-0.370D+00
 Coeff-Com:  0.926D-01 0.129D+01
 Coeff:      0.242D-03-0.677D-02-0.438D-02 0.219D-01-0.455D-02-0.198D-01
 Coeff:     -0.174D-01 0.133D-01 0.779D-01 0.103D+00-0.174D+00-0.370D+00
 Coeff:      0.926D-01 0.129D+01
 Gap=     0.330 Goal=   None    Shift=    0.000
 Gap=     0.162 Goal=   None    Shift=    0.000
 RMSDP=4.50D-08 MaxDP=1.00D-06 DE=-1.19D-10 OVMax= 1.28D-05

 Cycle  27  Pass 1  IDiag  1:
 RMSU=  1.26D-08    CP:  1.00D+00  1.07D+00  3.00D+00  3.00D+00  3.00D+00
                    CP:  1.94D+00  2.76D+00  2.29D+00  2.49D+00  3.00D+00
                    CP:  3.00D+00  3.00D+00  2.45D+00  1.85D+00
 E= -687.120304230059     Delta-E=        0.000000000029 Rises=F Damp=F
 DIIS: error= 9.03D-08 at cycle  15 NSaved=  15.
 NSaved=15 IEnMin=14 EnMin= -687.120304230088     IErMin=15 ErrMin= 9.03D-08
 ErrMax= 9.03D-08  0.00D+00 EMaxC= 1.00D-01 BMatC= 2.00D-12 BMatP= 6.05D-12
 IDIUse=1 WtCom= 1.00D+00 WtEn= 0.00D+00
 Coeff-Com: -0.683D-04 0.339D-02 0.589D-03-0.188D-01 0.788D-02 0.377D-01
 Coeff-Com:  0.155D-02-0.653D-01-0.182D-01 0.152D+00 0.715D-01-0.282D+00
 Coeff-Com: -0.377D+00 0.597D+00 0.889D+00
 Coeff:     -0.683D-04 0.339D-02 0.589D-03-0.188D-01 0.788D-02 0.377D-01
 Coeff:      0.155D-02-0.653D-01-0.182D-01 0.152D+00 0.715D-01-0.282D+00
 Coeff:     -0.377D+00 0.597D+00 0.889D+00
 Gap=     0.330 Goal=   None    Shift=    0.000
 Gap=     0.162 Goal=   None    Shift=    0.000
 RMSDP=2.08D-08 MaxDP=6.32D-07 DE= 2.93D-11 OVMax= 7.06D-06

 Cycle  28  Pass 1  IDiag  1:
 RMSU=  5.54D-09    CP:  1.00D+00  1.07D+00  3.00D+00  3.00D+00  3.00D+00
                    CP:  1.94D+00  2.76D+00  2.30D+00  2.51D+00  3.00D+00
                    CP:  3.00D+00  3.00D+00  2.75D+00  2.23D+00  1.64D+00
 E= -687.120304230123     Delta-E=       -0.000000000064 Rises=F Damp=F
 DIIS: error= 3.32D-08 at cycle  16 NSaved=  16.
 NSaved=16 IEnMin=16 EnMin= -687.120304230123     IErMin=16 ErrMin= 3.32D-08
 ErrMax= 3.32D-08  0.00D+00 EMaxC= 1.00D-01 BMatC= 3.49D-13 BMatP= 2.00D-12
 IDIUse=1 WtCom= 1.00D+00 WtEn= 0.00D+00
 Coeff-Com: -0.653D-04 0.234D-02 0.101D-02-0.103D-01 0.348D-02 0.166D-01
 Coeff-Com:  0.363D-02-0.238D-01-0.217D-01 0.348D-01 0.544D-01-0.255D-01
 Coeff-Com: -0.150D+00-0.334D-01 0.278D+00 0.870D+00
 Coeff:     -0.653D-04 0.234D-02 0.101D-02-0.103D-01 0.348D-02 0.166D-01
 Coeff:      0.363D-02-0.238D-01-0.217D-01 0.348D-01 0.544D-01-0.255D-01
 Coeff:     -0.150D+00-0.334D-01 0.278D+00 0.870D+00
 Gap=     0.330 Goal=   None    Shift=    0.000
 Gap=     0.162 Goal=   None    Shift=    0.000
 RMSDP=6.09D-09 MaxDP=2.16D-07 DE=-6.43D-11 OVMax= 1.74D-06

 SCF Done:  E(ULC-wHPBE) =  -687.120304230     A.U. after   28 cycles
            NFock= 28  Conv=0.61D-08     -V/T= 2.0113
 <Sx>= 0.0000 <Sy>= 0.0000 <Sz>= 0.5000 <S**2>= 0.7644 S= 0.5072
 <L.S>= 0.000000000000E+00
 KE= 6.794411278817D+02 PE=-3.721369444829D+03 EE= 1.272822301986D+03
 Annihilation of the first spin contaminant:
 S**2 before annihilation     0.7644,   after     0.7502
 Leave Link  502 at Wed May 11 06:27:53 2022, MaxMem=  6442450944 cpu:            3307.3 elap:             210.2
 (Enter /mnt/gpfs3_amd/share/apps/amd/gaussian/g16-A.03/g16/l601.exe)
 Copying SCF densities to generalized density rwf, IOpCl= 1 IROHF=0.

 **********************************************************************

            Population analysis using the SCF density.

 **********************************************************************

 Orbital symmetries:
 Alpha Orbitals:
       Occupied  (A) (A) (A) (A) (A) (A) (A) (A) (A) (A) (A) (A)
                 (A) (A) (A) (A) (A) (A) (A) (A) (A) (A) (A) (A)
                 (A) (A) (A) (A) (A) (A) (A) (A) (A) (A) (A) (A)
                 (A) (A) (A) (A) (A) (A) (A) (A) (A) (A) (A) (A)
                 (A) (A) (A) (A) (A) (A) (A) (A) (A) (A)
       Virtual   (A) (A) (A) (A) (A) (A) (A) (A) (A) (A) (A) (A)
                 (A) (A) (A) (A) (A) (A) (A) (A) (A) (A) (A) (A)
                 (A) (A) (A) (A) (A) (A) (A) (A) (A) (A) (A) (A)
                 (A) (A) (A) (A) (A) (A) (A) (A) (A) (A) (A) (A)
                 (A) (A) (A) (A) (A) (A) (A) (A) (A) (A) (A) (A)
                 (A) (A) (A) (A) (A) (A) (A) (A) (A) (A) (A) (A)
                 (A) (A) (A) (A) (A) (A) (A) (A) (A) (A) (A) (A)
                 (A) (A) (A) (A) (A) (A) (A) (A) (A) (A) (A) (A)
                 (A) (A) (A) (A) (A) (A) (A) (A) (A) (A) (A) (A)
                 (A) (A) (A) (A) (A) (A) (A) (A) (A) (A) (A) (A)
                 (A) (A) (A) (A) (A) (A) (A) (A) (A) (A) (A) (A)
                 (A) (A) (A) (A) (A) (A) (A) (A) (A) (A) (A) (A)
                 (A) (A) (A) (A) (A) (A) (A) (A) (A) (A) (A) (A)
                 (A) (A) (A) (A) (A) (A) (A) (A) (A) (A) (A) (A)
                 (A) (A) (A) (A) (A) (A) (A) (A) (A) (A) (A) (A)
                 (A) (A) (A) (A) (A) (A) (A) (A) (A) (A) (A) (A)
                 (A) (A) (A) (A) (A) (A) (A) (A) (A) (A) (A) (A)
                 (A) (A) (A) (A) (A) (A) (A) (A) (A) (A) (A) (A)
                 (A) (A) (A) (A) (A) (A) (A) (A) (A) (A) (A) (A)
                 (A) (A) (A) (A) (A) (A) (A) (A) (A) (A) (A) (A)
                 (A) (A) (A) (A) (A)
 Beta  Orbitals:
       Occupied  (A) (A) (A) (A) (A) (A) (A) (A) (A) (A) (A) (A)
                 (A) (A) (A) (A) (A) (A) (A) (A) (A) (A) (A) (A)
                 (A) (A) (A) (A) (A) (A) (A) (A) (A) (A) (A) (A)
                 (A) (A) (A) (A) (A) (A) (A) (A) (A) (A) (A) (A)
                 (A) (A) (A) (A) (A) (A) (A) (A) (A)
       Virtual   (A) (A) (A) (A) (A) (A) (A) (A) (A) (A) (A) (A)
                 (A) (A) (A) (A) (A) (A) (A) (A) (A) (A) (A) (A)
                 (A) (A) (A) (A) (A) (A) (A) (A) (A) (A) (A) (A)
                 (A) (A) (A) (A) (A) (A) (A) (A) (A) (A) (A) (A)
                 (A) (A) (A) (A) (A) (A) (A) (A) (A) (A) (A) (A)
                 (A) (A) (A) (A) (A) (A) (A) (A) (A) (A) (A) (A)
                 (A) (A) (A) (A) (A) (A) (A) (A) (A) (A) (A) (A)
                 (A) (A) (A) (A) (A) (A) (A) (A) (A) (A) (A) (A)
                 (A) (A) (A) (A) (A) (A) (A) (A) (A) (A) (A) (A)
                 (A) (A) (A) (A) (A) (A) (A) (A) (A) (A) (A) (A)
                 (A) (A) (A) (A) (A) (A) (A) (A) (A) (A) (A) (A)
                 (A) (A) (A) (A) (A) (A) (A) (A) (A) (A) (A) (A)
                 (A) (A) (A) (A) (A) (A) (A) (A) (A) (A) (A) (A)
                 (A) (A) (A) (A) (A) (A) (A) (A) (A) (A) (A) (A)
                 (A) (A) (A) (A) (A) (A) (A) (A) (A) (A) (A) (A)
                 (A) (A) (A) (A) (A) (A) (A) (A) (A) (A) (A) (A)
                 (A) (A) (A) (A) (A) (A) (A) (A) (A) (A) (A) (A)
                 (A) (A) (A) (A) (A) (A) (A) (A) (A) (A) (A) (A)
                 (A) (A) (A) (A) (A) (A) (A) (A) (A) (A) (A) (A)
                 (A) (A) (A) (A) (A) (A) (A) (A) (A) (A) (A) (A)
                 (A) (A) (A) (A) (A) (A)
 The electronic state is 2-A.
 Alpha  occ. eigenvalues --  -14.52712 -14.47519 -10.43500 -10.43455 -10.39397
 Alpha  occ. eigenvalues --  -10.38198 -10.37319 -10.32305 -10.31937 -10.31796
 Alpha  occ. eigenvalues --  -10.31659 -10.31424 -10.30736 -10.30459 -10.30340
 Alpha  occ. eigenvalues --  -10.30080 -10.29589  -1.36644  -1.31485  -1.25793
 Alpha  occ. eigenvalues --   -1.19841  -1.18290  -1.10248  -1.09450  -1.07929
 Alpha  occ. eigenvalues --   -1.07341  -1.00515  -0.98565  -0.96605  -0.95086
 Alpha  occ. eigenvalues --   -0.94585  -0.93799  -0.90593  -0.90086  -0.89051
 Alpha  occ. eigenvalues --   -0.85201  -0.83636  -0.82640  -0.80833  -0.80200
 Alpha  occ. eigenvalues --   -0.78634  -0.77431  -0.77147  -0.76379  -0.76044
 Alpha  occ. eigenvalues --   -0.75315  -0.74101  -0.73810  -0.71793  -0.69822
 Alpha  occ. eigenvalues --   -0.69069  -0.68565  -0.68110  -0.65447  -0.62863
 Alpha  occ. eigenvalues --   -0.61004  -0.60517  -0.59557
 Alpha virt. eigenvalues --   -0.26592  -0.24438  -0.23365  -0.22934  -0.21845
 Alpha virt. eigenvalues --   -0.20016  -0.15149  -0.13011  -0.11811  -0.10682
 Alpha virt. eigenvalues --   -0.09670  -0.08608  -0.07837  -0.07437  -0.06613
 Alpha virt. eigenvalues --   -0.06458  -0.05220  -0.04658  -0.03673  -0.03044
 Alpha virt. eigenvalues --   -0.01718  -0.01402   0.00048   0.00211   0.00418
 Alpha virt. eigenvalues --    0.04071   0.05375   0.06005   0.07506   0.08675
 Alpha virt. eigenvalues --    0.08993   0.09348   0.10664   0.11611   0.12897
 Alpha virt. eigenvalues --    0.14326   0.14978   0.15934   0.19152   0.19539
 Alpha virt. eigenvalues --    0.20686   0.21219   0.21959   0.22483   0.23221
 Alpha virt. eigenvalues --    0.23545   0.24737   0.25656   0.27027   0.27887
 Alpha virt. eigenvalues --    0.28127   0.28776   0.29654   0.29945   0.30345
 Alpha virt. eigenvalues --    0.30732   0.30934   0.32141   0.34740   0.35218
 Alpha virt. eigenvalues --    0.35470   0.35939   0.37154   0.37929   0.37988
 Alpha virt. eigenvalues --    0.40163   0.40734   0.41938   0.42228   0.43646
 Alpha virt. eigenvalues --    0.43827   0.44659   0.44769   0.46522   0.46740
 Alpha virt. eigenvalues --    0.47493   0.47621   0.48289   0.49171   0.49475
 Alpha virt. eigenvalues --    0.50147   0.50682   0.52119   0.52696   0.53355
 Alpha virt. eigenvalues --    0.53601   0.54103   0.54930   0.55614   0.56102
 Alpha virt. eigenvalues --    0.57219   0.57683   0.58174   0.59475   0.61166
 Alpha virt. eigenvalues --    0.61651   0.62884   0.64772   0.65228   0.68483
 Alpha virt. eigenvalues --    0.69400   0.71965   0.72549   0.73500   0.78059
 Alpha virt. eigenvalues --    0.81389   0.84161   0.85264   0.85996   0.86952
 Alpha virt. eigenvalues --    0.88050   0.90234   0.94507   0.95608   0.97333
 Alpha virt. eigenvalues --    0.99041   1.00112   1.01744   1.01992   1.02748
 Alpha virt. eigenvalues --    1.02753   1.04014   1.05033   1.05775   1.06260
 Alpha virt. eigenvalues --    1.08032   1.08692   1.09348   1.11160   1.12039
 Alpha virt. eigenvalues --    1.13728   1.14977   1.25541   1.28386   1.30958
 Alpha virt. eigenvalues --    1.33085   1.36576   1.39098   1.40028   1.43778
 Alpha virt. eigenvalues --    1.44666   1.44753   1.45414   1.45832   1.47080
 Alpha virt. eigenvalues --    1.49149   1.50163   1.51140   1.51895   1.52146
 Alpha virt. eigenvalues --    1.52339   1.52857   1.53230   1.53623   1.54565
 Alpha virt. eigenvalues --    1.55420   1.55954   1.56624   1.58586   1.59443
 Alpha virt. eigenvalues --    1.60870   1.61806   1.62576   1.63535   1.63750
 Alpha virt. eigenvalues --    1.65640   1.70066   1.72434   1.73257   1.74763
 Alpha virt. eigenvalues --    1.75131   1.75474   1.75801   1.76326   1.76717
 Alpha virt. eigenvalues --    1.77287   1.77953   1.79614   1.80945   1.82497
 Alpha virt. eigenvalues --    1.84151   1.86782   1.87961   1.91315   1.91423
 Alpha virt. eigenvalues --    1.92541   1.93060   1.93795   1.94040   1.95062
 Alpha virt. eigenvalues --    1.98559   1.99386   2.03258   2.04354   2.04519
 Alpha virt. eigenvalues --    2.05701   2.06373   2.06598   2.07891   2.08274
 Alpha virt. eigenvalues --    2.08592   2.10774   2.11372   2.12495   2.16821
 Alpha virt. eigenvalues --    2.18330   2.22618   2.28425   2.30571   2.32209
 Alpha virt. eigenvalues --    2.33633   2.35108   2.36723   2.37656   2.38353
 Alpha virt. eigenvalues --    2.39076   2.39978   2.45680   2.49079   2.49425
 Alpha virt. eigenvalues --    2.50041   2.50588   2.53183   2.54687   2.56444
 Alpha virt. eigenvalues --    2.60321   2.61647   2.62285   2.63212   2.63634
 Alpha virt. eigenvalues --    2.65397   2.71934   2.77442   2.84135   2.87369
 Alpha virt. eigenvalues --    2.88084   2.88972   2.93836   2.97628   3.03047
 Alpha virt. eigenvalues --    3.12561   3.17438   3.31737   3.37857   3.41148
  Beta  occ. eigenvalues --  -14.52367 -14.47473 -10.43522 -10.43485 -10.39231
  Beta  occ. eigenvalues --  -10.37986 -10.37194 -10.32143 -10.31895 -10.31643
  Beta  occ. eigenvalues --  -10.31621 -10.31118 -10.30717 -10.30326 -10.30241
  Beta  occ. eigenvalues --  -10.30160 -10.29663  -1.36174  -1.31264  -1.25651
  Beta  occ. eigenvalues --   -1.19427  -1.17921  -1.09727  -1.09035  -1.07703
  Beta  occ. eigenvalues --   -1.07157  -1.00096  -0.98335  -0.96445  -0.94795
  Beta  occ. eigenvalues --   -0.94412  -0.93566  -0.90499  -0.89872  -0.88873
  Beta  occ. eigenvalues --   -0.84593  -0.83436  -0.82458  -0.80489  -0.79997
  Beta  occ. eigenvalues --   -0.78470  -0.77254  -0.76910  -0.76285  -0.75971
  Beta  occ. eigenvalues --   -0.74755  -0.73614  -0.73117  -0.70297  -0.69696
  Beta  occ. eigenvalues --   -0.68945  -0.68392  -0.67956  -0.63905  -0.60788
  Beta  occ. eigenvalues --   -0.60275  -0.58945
  Beta virt. eigenvalues --   -0.42783  -0.25402  -0.23317  -0.22474  -0.22252
  Beta virt. eigenvalues --   -0.21234  -0.18785  -0.15072  -0.12862  -0.11600
  Beta virt. eigenvalues --   -0.10561  -0.09556  -0.08455  -0.07759  -0.07015
  Beta virt. eigenvalues --   -0.06210  -0.06037  -0.05108  -0.04508  -0.03403
  Beta virt. eigenvalues --   -0.02874  -0.01678  -0.01325   0.00264   0.00478
  Beta virt. eigenvalues --    0.00568   0.04286   0.05730   0.06322   0.07682
  Beta virt. eigenvalues --    0.08865   0.09087   0.09493   0.10918   0.11893
  Beta virt. eigenvalues --    0.13192   0.14585   0.15243   0.16134   0.19390
  Beta virt. eigenvalues --    0.19762   0.20889   0.21491   0.22065   0.22668
  Beta virt. eigenvalues --    0.23345   0.23831   0.25033   0.26007   0.27209
  Beta virt. eigenvalues --    0.28193   0.28464   0.29076   0.29861   0.30285
  Beta virt. eigenvalues --    0.30632   0.31061   0.31175   0.32473   0.34882
  Beta virt. eigenvalues --    0.35396   0.35864   0.36183   0.37301   0.38207
  Beta virt. eigenvalues --    0.38285   0.40377   0.40944   0.42346   0.42631
  Beta virt. eigenvalues --    0.43896   0.44058   0.44817   0.44971   0.46776
  Beta virt. eigenvalues --    0.46974   0.47577   0.47803   0.48393   0.49324
  Beta virt. eigenvalues --    0.49822   0.50404   0.50872   0.52262   0.52871
  Beta virt. eigenvalues --    0.53560   0.53718   0.54308   0.55102   0.55817
  Beta virt. eigenvalues --    0.56450   0.57450   0.57911   0.58384   0.59670
  Beta virt. eigenvalues --    0.61384   0.61855   0.63087   0.64962   0.65498
  Beta virt. eigenvalues --    0.68732   0.69677   0.72177   0.72694   0.73643
  Beta virt. eigenvalues --    0.78310   0.81597   0.84295   0.85622   0.86195
  Beta virt. eigenvalues --    0.87170   0.88412   0.90409   0.94843   0.95938
  Beta virt. eigenvalues --    0.97577   0.99161   1.00452   1.01969   1.02167
  Beta virt. eigenvalues --    1.02982   1.03058   1.04331   1.05358   1.06027
  Beta virt. eigenvalues --    1.06627   1.08340   1.08962   1.09547   1.11330
  Beta virt. eigenvalues --    1.12259   1.13992   1.15175   1.25663   1.28714
  Beta virt. eigenvalues --    1.31043   1.33279   1.36996   1.39427   1.40097
  Beta virt. eigenvalues --    1.43921   1.44795   1.44863   1.45553   1.45959
  Beta virt. eigenvalues --    1.47313   1.49530   1.50396   1.51338   1.52219
  Beta virt. eigenvalues --    1.52472   1.52625   1.53064   1.53583   1.53994
  Beta virt. eigenvalues --    1.54909   1.55750   1.56231   1.56882   1.58782
  Beta virt. eigenvalues --    1.59685   1.60997   1.62085   1.62891   1.63632
  Beta virt. eigenvalues --    1.64142   1.65966   1.70280   1.72730   1.73518
  Beta virt. eigenvalues --    1.74969   1.75325   1.75701   1.76027   1.76414
  Beta virt. eigenvalues --    1.76955   1.77371   1.78323   1.79976   1.81296
  Beta virt. eigenvalues --    1.82643   1.84450   1.86917   1.88049   1.91526
  Beta virt. eigenvalues --    1.91939   1.93043   1.93292   1.94070   1.94422
  Beta virt. eigenvalues --    1.95401   1.98854   1.99758   2.03665   2.04769
  Beta virt. eigenvalues --    2.05232   2.06174   2.06745   2.06853   2.08187
  Beta virt. eigenvalues --    2.08461   2.09014   2.11026   2.11628   2.12733
  Beta virt. eigenvalues --    2.17029   2.18887   2.22840   2.28899   2.30952
  Beta virt. eigenvalues --    2.32426   2.34163   2.35624   2.37117   2.37918
  Beta virt. eigenvalues --    2.38748   2.39572   2.40383   2.46071   2.49110
  Beta virt. eigenvalues --    2.49460   2.50150   2.50660   2.53529   2.55108
  Beta virt. eigenvalues --    2.56634   2.60683   2.61807   2.62467   2.63441
  Beta virt. eigenvalues --    2.63961   2.65756   2.72131   2.77607   2.84371
  Beta virt. eigenvalues --    2.87464   2.88170   2.89054   2.93965   2.97799
  Beta virt. eigenvalues --    3.03194   3.12683   3.17644   3.31799   3.37991
  Beta virt. eigenvalues --    3.41284
          Condensed to atoms (all electrons):
               1          2          3          4          5          6
     1  N    5.761069   0.537635  -0.042153  -0.047699   0.000065  -0.000698
     2  C    0.537635   4.821107   0.300920   0.309128  -0.032018  -0.013039
     3  C   -0.042153   0.300920   5.243520   0.168849  -0.047208   0.003625
     4  C   -0.047699   0.309128   0.168849   5.130972   0.411683  -0.055797
     5  N    0.000065  -0.032018  -0.047208   0.411683   6.540454   0.256480
     6  C   -0.000698  -0.013039   0.003625  -0.055797   0.256480   5.452125
     7  C   -0.001117  -0.001928   0.001492  -0.006640  -0.066587   0.152914
     8  C    0.000010  -0.000155  -0.000026  -0.000120   0.006937   0.131030
     9  C    0.000000  -0.000010   0.000002   0.000109  -0.000345  -0.167462
    10  C    0.000005   0.000014  -0.000002  -0.000042   0.007546   0.138882
    11  C   -0.000049   0.000531  -0.000311   0.003266  -0.064674   0.184512
    12  C   -0.000106   0.001363  -0.004922  -0.054786   0.256279  -0.035997
    13  C   -0.000000  -0.000542   0.000425   0.002118  -0.063670   0.007814
    14  C    0.000000   0.000009   0.000001   0.000019   0.007441  -0.001284
    15  C    0.000000   0.000001  -0.000003   0.000132  -0.000389   0.000093
    16  C    0.000000   0.000020  -0.000122  -0.000095   0.006635  -0.000317
    17  C   -0.000002   0.000580   0.000076  -0.005236  -0.066005   0.002951
    18  H    0.377897  -0.011531   0.007888  -0.020311   0.000361   0.000229
    19  H    0.359889  -0.002799  -0.010796   0.011403  -0.000047  -0.000013
    20  H   -0.001071  -0.050967   0.468274  -0.049704  -0.001168  -0.000099
    21  H    0.000888   0.000403  -0.000366   0.002069  -0.009583  -0.082042
    22  H   -0.000006   0.000006  -0.000001  -0.000019  -0.000104   0.013821
    23  H    0.000000  -0.000000   0.000000   0.000000   0.000009  -0.001711
    24  H    0.000000   0.000001  -0.000000  -0.000001  -0.000095   0.013344
    25  H   -0.000000  -0.000073  -0.000035  -0.000644  -0.012439  -0.069996
    26  H   -0.000000  -0.000055  -0.000050  -0.000772  -0.012172   0.008834
    27  H   -0.000000  -0.000000   0.000000  -0.000002  -0.000089  -0.000029
    28  H    0.000000   0.000000  -0.000000   0.000000   0.000010   0.000000
    29  H   -0.000000  -0.000001   0.000009  -0.000028  -0.000093   0.000006
    30  H   -0.000003  -0.000351   0.000277   0.003774  -0.011377  -0.000418
               7          8          9         10         11         12
     1  N   -0.001117   0.000010   0.000000   0.000005  -0.000049  -0.000106
     2  C   -0.001928  -0.000155  -0.000010   0.000014   0.000531   0.001363
     3  C    0.001492  -0.000026   0.000002  -0.000002  -0.000311  -0.004922
     4  C   -0.006640  -0.000120   0.000109  -0.000042   0.003266  -0.054786
     5  N   -0.066587   0.006937  -0.000345   0.007546  -0.064674   0.256279
     6  C    0.152914   0.131030  -0.167462   0.138882   0.184512  -0.035997
     7  C    5.239383   0.269918   0.096598  -0.152541   0.075408   0.002862
     8  C    0.269918   5.017405   0.242329   0.109848  -0.141408  -0.000361
     9  C    0.096598   0.242329   5.041909   0.253334   0.097057   0.000100
    10  C   -0.152541   0.109848   0.253334   5.027777   0.262839  -0.001193
    11  C    0.075408  -0.141408   0.097057   0.262839   5.109739   0.007273
    12  C    0.002862  -0.000361   0.000100  -0.001193   0.007273   5.412643
    13  C   -0.000968   0.000056  -0.000055  -0.000254  -0.004574   0.174134
    14  C    0.000054   0.000003   0.000002  -0.000007  -0.000300   0.136696
    15  C   -0.000007   0.000000  -0.000000   0.000002  -0.000058  -0.166414
    16  C    0.000011  -0.000000   0.000000   0.000002   0.000053   0.134898
    17  C   -0.000815   0.000012  -0.000007   0.000046  -0.000946   0.162962
    18  H    0.003630   0.000437   0.000015  -0.000019  -0.000074  -0.000020
    19  H   -0.000025   0.000001  -0.000000  -0.000000   0.000001   0.000008
    20  H   -0.000014  -0.000000  -0.000000  -0.000000   0.000003   0.000545
    21  H    0.451629  -0.045007   0.012226  -0.002170   0.012321  -0.000512
    22  H   -0.058658   0.445619  -0.056759   0.011196  -0.001446   0.000007
    23  H    0.012482  -0.060064   0.449407  -0.057682   0.012258   0.000000
    24  H   -0.001401   0.011280  -0.056869   0.445197  -0.056179  -0.000031
    25  H    0.013083  -0.002255   0.012198  -0.050981   0.450458   0.008517
    26  H   -0.001364   0.000127  -0.000012  -0.000236  -0.001171  -0.067621
    27  H    0.000002  -0.000000   0.000000  -0.000001   0.000010   0.013214
    28  H    0.000000   0.000000  -0.000000   0.000000   0.000000  -0.001619
    29  H    0.000000   0.000000   0.000000  -0.000000  -0.000002   0.013400
    30  H   -0.000010   0.000000   0.000000  -0.000001   0.000113  -0.076700
              13         14         15         16         17         18
     1  N   -0.000000   0.000000   0.000000   0.000000  -0.000002   0.377897
     2  C   -0.000542   0.000009   0.000001   0.000020   0.000580  -0.011531
     3  C    0.000425   0.000001  -0.000003  -0.000122   0.000076   0.007888
     4  C    0.002118   0.000019   0.000132  -0.000095  -0.005236  -0.020311
     5  N   -0.063670   0.007441  -0.000389   0.006635  -0.066005   0.000361
     6  C    0.007814  -0.001284   0.000093  -0.000317   0.002951   0.000229
     7  C   -0.000968   0.000054  -0.000007   0.000011  -0.000815   0.003630
     8  C    0.000056   0.000003   0.000000  -0.000000   0.000012   0.000437
     9  C   -0.000055   0.000002  -0.000000   0.000000  -0.000007   0.000015
    10  C   -0.000254  -0.000007   0.000002   0.000002   0.000046  -0.000019
    11  C   -0.004574  -0.000300  -0.000058   0.000053  -0.000946  -0.000074
    12  C    0.174134   0.136696  -0.166414   0.134898   0.162962  -0.000020
    13  C    5.111747   0.270768   0.097649  -0.140915   0.070870   0.000000
    14  C    0.270768   5.025159   0.244761   0.106428  -0.146385  -0.000000
    15  C    0.097649   0.244761   5.047961   0.231981   0.095608   0.000000
    16  C   -0.140915   0.106428   0.231981   5.000804   0.288396  -0.000000
    17  C    0.070870  -0.146385   0.095608   0.288396   5.168456   0.000001
    18  H    0.000000  -0.000000   0.000000  -0.000000   0.000001   0.464336
    19  H   -0.000000   0.000000  -0.000000   0.000000  -0.000000  -0.020916
    20  H   -0.000010  -0.000000   0.000001   0.000017   0.000362  -0.000072
    21  H    0.000125   0.000000   0.000000   0.000000  -0.000014   0.000495
    22  H   -0.000002  -0.000000   0.000000   0.000000   0.000000   0.000014
    23  H   -0.000000   0.000000  -0.000000   0.000000   0.000000  -0.000001
    24  H    0.000010  -0.000001   0.000000  -0.000000   0.000002  -0.000000
    25  H   -0.001152  -0.000249  -0.000010   0.000113  -0.001229  -0.000002
    26  H    0.449177  -0.050041   0.011958  -0.002176   0.012602  -0.000000
    27  H   -0.055096   0.445393  -0.056770   0.011112  -0.001463   0.000000
    28  H    0.011894  -0.056775   0.448113  -0.058432   0.011969  -0.000000
    29  H   -0.001438   0.010941  -0.056941   0.444625  -0.055020  -0.000000
    30  H    0.012304  -0.002132   0.012200  -0.044716   0.450676   0.000001
              19         20         21         22         23         24
     1  N    0.359889  -0.001071   0.000888  -0.000006   0.000000   0.000000
     2  C   -0.002799  -0.050967   0.000403   0.000006  -0.000000   0.000001
     3  C   -0.010796   0.468274  -0.000366  -0.000001   0.000000  -0.000000
     4  C    0.011403  -0.049704   0.002069  -0.000019   0.000000  -0.000001
     5  N   -0.000047  -0.001168  -0.009583  -0.000104   0.000009  -0.000095
     6  C   -0.000013  -0.000099  -0.082042   0.013821  -0.001711   0.013344
     7  C   -0.000025  -0.000014   0.451629  -0.058658   0.012482  -0.001401
     8  C    0.000001  -0.000000  -0.045007   0.445619  -0.060064   0.011280
     9  C   -0.000000  -0.000000   0.012226  -0.056759   0.449407  -0.056869
    10  C   -0.000000  -0.000000  -0.002170   0.011196  -0.057682   0.445197
    11  C    0.000001   0.000003   0.012321  -0.001446   0.012258  -0.056179
    12  C    0.000008   0.000545  -0.000512   0.000007   0.000000  -0.000031
    13  C   -0.000000  -0.000010   0.000125  -0.000002  -0.000000   0.000010
    14  C    0.000000  -0.000000   0.000000  -0.000000   0.000000  -0.000001
    15  C   -0.000000   0.000001   0.000000   0.000000  -0.000000   0.000000
    16  C    0.000000   0.000017   0.000000   0.000000   0.000000  -0.000000
    17  C   -0.000000   0.000362  -0.000014   0.000000   0.000000   0.000002
    18  H   -0.020916  -0.000072   0.000495   0.000014  -0.000001  -0.000000
    19  H    0.449152   0.000384  -0.000012   0.000000  -0.000000   0.000000
    20  H    0.000384   0.508689  -0.000002   0.000000  -0.000000  -0.000000
    21  H   -0.000012  -0.000002   0.618415  -0.010286  -0.000123   0.000013
    22  H    0.000000   0.000000  -0.010286   0.580241  -0.009436  -0.000136
    23  H   -0.000000  -0.000000  -0.000123  -0.009436   0.569042  -0.009425
    24  H    0.000000  -0.000000   0.000013  -0.000136  -0.009425   0.575477
    25  H   -0.000000  -0.000000  -0.000086   0.000012  -0.000109  -0.009869
    26  H   -0.000000  -0.000001   0.000083   0.000000  -0.000000  -0.000001
    27  H   -0.000000  -0.000000  -0.000000  -0.000000   0.000000  -0.000000
    28  H    0.000000   0.000000  -0.000000   0.000000  -0.000000   0.000000
    29  H   -0.000000  -0.000000   0.000000  -0.000000   0.000000  -0.000000
    30  H   -0.000001  -0.000030  -0.000001  -0.000000  -0.000000  -0.000000
              25         26         27         28         29         30
     1  N   -0.000000  -0.000000  -0.000000   0.000000  -0.000000  -0.000003
     2  C   -0.000073  -0.000055  -0.000000   0.000000  -0.000001  -0.000351
     3  C   -0.000035  -0.000050   0.000000  -0.000000   0.000009   0.000277
     4  C   -0.000644  -0.000772  -0.000002   0.000000  -0.000028   0.003774
     5  N   -0.012439  -0.012172  -0.000089   0.000010  -0.000093  -0.011377
     6  C   -0.069996   0.008834  -0.000029   0.000000   0.000006  -0.000418
     7  C    0.013083  -0.001364   0.000002   0.000000   0.000000  -0.000010
     8  C   -0.002255   0.000127  -0.000000   0.000000   0.000000   0.000000
     9  C    0.012198  -0.000012   0.000000  -0.000000   0.000000   0.000000
    10  C   -0.050981  -0.000236  -0.000001   0.000000  -0.000000  -0.000001
    11  C    0.450458  -0.001171   0.000010   0.000000  -0.000002   0.000113
    12  C    0.008517  -0.067621   0.013214  -0.001619   0.013400  -0.076700
    13  C   -0.001152   0.449177  -0.055096   0.011894  -0.001438   0.012304
    14  C   -0.000249  -0.050041   0.445393  -0.056775   0.010941  -0.002132
    15  C   -0.000010   0.011958  -0.056770   0.448113  -0.056941   0.012200
    16  C    0.000113  -0.002176   0.011112  -0.058432   0.444625  -0.044716
    17  C   -0.001229   0.012602  -0.001463   0.011969  -0.055020   0.450676
    18  H   -0.000002  -0.000000   0.000000  -0.000000  -0.000000   0.000001
    19  H   -0.000000  -0.000000  -0.000000   0.000000  -0.000000  -0.000001
    20  H   -0.000000  -0.000001  -0.000000   0.000000  -0.000000  -0.000030
    21  H   -0.000086   0.000083  -0.000000  -0.000000   0.000000  -0.000001
    22  H    0.000012   0.000000  -0.000000   0.000000  -0.000000  -0.000000
    23  H   -0.000109  -0.000000   0.000000  -0.000000   0.000000  -0.000000
    24  H   -0.009869  -0.000001  -0.000000   0.000000  -0.000000  -0.000000
    25  H    0.601693   0.000003  -0.000001  -0.000000  -0.000000   0.000064
    26  H    0.000003   0.593625  -0.009745  -0.000105   0.000011  -0.000078
    27  H   -0.000001  -0.009745   0.570534  -0.009240  -0.000128   0.000011
    28  H   -0.000000  -0.000105  -0.009240   0.562083  -0.009172  -0.000116
    29  H   -0.000000   0.000011  -0.000128  -0.009172   0.571678  -0.010135
    30  H    0.000064  -0.000078   0.000011  -0.000116  -0.010135   0.610030
          Atomic-Atomic Spin Densities.
               1          2          3          4          5          6
     1  N    0.030770  -0.005200  -0.001136   0.001407   0.000134   0.000035
     2  C   -0.005200   0.009731   0.010563  -0.009277  -0.001051   0.000439
     3  C   -0.001136   0.010563   0.128210  -0.018868  -0.004312  -0.000069
     4  C    0.001407  -0.009277  -0.018868  -0.036273   0.024672  -0.001062
     5  N    0.000134  -0.001051  -0.004312   0.024672   0.225598  -0.037848
     6  C    0.000035   0.000439  -0.000069  -0.001062  -0.037848   0.103903
     7  C    0.000180  -0.000714   0.000066   0.000961   0.000645   0.013813
     8  C   -0.000022   0.000006   0.000006   0.000072   0.000302  -0.000977
     9  C   -0.000000   0.000001  -0.000000   0.000010   0.000051  -0.005413
    10  C    0.000000   0.000004  -0.000001   0.000011   0.000266   0.000283
    11  C   -0.000007  -0.000052   0.000032  -0.000732  -0.003156   0.017836
    12  C   -0.000003  -0.000062   0.000869  -0.001333  -0.047076  -0.003152
    13  C   -0.000000  -0.000010   0.000050  -0.000807  -0.003077  -0.002800
    14  C    0.000000  -0.000001  -0.000001   0.000015   0.000301  -0.000103
    15  C    0.000000  -0.000000  -0.000002   0.000012   0.000059   0.000006
    16  C    0.000000   0.000007  -0.000004   0.000077   0.000341   0.000051
    17  C    0.000001   0.000140  -0.000789   0.000695   0.000204   0.000037
    18  H    0.000404  -0.000199   0.000010  -0.000084  -0.000006   0.000019
    19  H   -0.000127   0.000208  -0.000001   0.000026   0.000000  -0.000000
    20  H    0.000002  -0.000082   0.000810  -0.000564  -0.000006   0.000002
    21  H    0.000066  -0.000262  -0.000011   0.000294   0.000398  -0.001023
    22  H   -0.000001   0.000003   0.000000  -0.000003  -0.000005   0.000092
    23  H   -0.000000   0.000000   0.000000  -0.000000   0.000000   0.000003
    24  H   -0.000000  -0.000000   0.000000  -0.000000  -0.000005   0.000112
    25  H    0.000000   0.000001  -0.000002  -0.000010   0.000435  -0.000060
    26  H    0.000000  -0.000003  -0.000001   0.000001   0.000447  -0.000964
    27  H   -0.000000   0.000000   0.000000  -0.000000  -0.000006   0.000012
    28  H    0.000000   0.000000   0.000000   0.000000   0.000000  -0.000000
    29  H   -0.000000  -0.000000   0.000003  -0.000002  -0.000005  -0.000000
    30  H    0.000000   0.000011  -0.000163  -0.000019   0.000140  -0.000001
               7          8          9         10         11         12
     1  N    0.000180  -0.000022  -0.000000   0.000000  -0.000007  -0.000003
     2  C   -0.000714   0.000006   0.000001   0.000004  -0.000052  -0.000062
     3  C    0.000066   0.000006  -0.000000  -0.000001   0.000032   0.000869
     4  C    0.000961   0.000072   0.000010   0.000011  -0.000732  -0.001333
     5  N    0.000645   0.000302   0.000051   0.000266  -0.003156  -0.047076
     6  C    0.013813  -0.000977  -0.005413   0.000283   0.017836  -0.003152
     7  C    0.024368  -0.016414  -0.002093  -0.001161   0.002519   0.000195
     8  C   -0.016414   0.013021   0.012793   0.000538  -0.003030   0.000041
     9  C   -0.002093   0.012793   0.164875  -0.001319  -0.001962   0.000006
    10  C   -0.001161   0.000538  -0.001319  -0.058856  -0.008593  -0.000217
    11  C    0.002519  -0.003030  -0.001962  -0.008593   0.108321  -0.002834
    12  C    0.000195   0.000041   0.000006  -0.000217  -0.002834   0.174869
[...]
    28  H    0.000000   0.000004   0.000089  -0.011430   0.000103   0.000003
    29  H   -0.000000  -0.000000  -0.000002   0.000103  -0.001118   0.000046
    30  H    0.000001   0.000003  -0.000001   0.000003   0.000046  -0.002376
 Mulliken charges and spin densities:
               1          2
     1  N    0.055446   0.026503
     2  C    0.141751   0.004203
     3  C   -0.089362   0.115257
     4  C    0.198373  -0.040780
     5  N   -0.105838   0.157443
     6  C    0.062241   0.083171
     7  C   -0.027390   0.023210
     8  C    0.014385   0.006547
     9  C    0.076232   0.167440
    10  C    0.008439  -0.068998
    11  C    0.055350   0.107499
    12  C    0.085382   0.149832
    13  C    0.059586   0.112660
    14  C    0.009502  -0.076228
    15  C    0.090132   0.235888
    16  C    0.021678   0.005858
    17  C    0.011556   0.022264
    18  H    0.197641  -0.000961
    19  H    0.213771  -0.000753
    20  H    0.124865  -0.004059
    21  H    0.051535  -0.001325
    22  H    0.085937  -0.000695
    23  H    0.095354  -0.007283
    24  H    0.088684   0.002984
    25  H    0.062990  -0.004774
    26  H    0.069178  -0.005085
    27  H    0.092289   0.002974
    28  H    0.101391  -0.010200
    29  H    0.092289  -0.000822
    30  H    0.056617  -0.001770
 Sum of Mulliken charges =   2.00000   1.00000
 Mulliken charges and spin densities with hydrogens summed into heavy atoms:
               1          2
     1  N    0.466858   0.024789
     2  C    0.141751   0.004203
     3  C    0.035503   0.111198
     4  C    0.198373  -0.040780
     5  N   -0.105838   0.157443
     6  C    0.062241   0.083171
     7  C    0.024145   0.021885
     8  C    0.100322   0.005852
     9  C    0.171586   0.160158
    10  C    0.097123  -0.066014
    11  C    0.118340   0.102725
    12  C    0.085382   0.149832
    13  C    0.128763   0.107575
    14  C    0.101790  -0.073254
    15  C    0.191523   0.225688
    16  C    0.113966   0.005036
    17  C    0.068173   0.020494
 Electronic spatial extent (au):  <R**2>=           4032.6601
 Charge=              2.0000 electrons
 Dipole moment (field-independent basis, Debye):
    X=             -2.0747    Y=              5.4629    Z=              0.1456  Tot=              5.8454
 Quadrupole moment (field-independent basis, Debye-Ang):
   XX=            -11.5506   YY=            -31.7075   ZZ=            -84.5483
   XY=             -9.2553   XZ=              1.8557   YZ=              0.8818
 Traceless Quadrupole moment (field-independent basis, Debye-Ang):
   XX=             31.0516   YY=             10.8946   ZZ=            -41.9462
   XY=             -9.2553   XZ=              1.8557   YZ=              0.8818
 Octapole moment (field-independent basis, Debye-Ang**2):
  XXX=             36.2148  YYY=            124.3123  ZZZ=              0.5688  XYY=            -88.2318
  XXY=            -12.1767  XXZ=             -3.9601  XZZ=              1.9366  YZZ=            -10.1015
  YYZ=              9.3921  XYZ=             18.5588
 Hexadecapole moment (field-independent basis, Debye-Ang**3):
 XXXX=          -1863.1973 YYYY=          -1072.3324 ZZZZ=           -355.8900 XXXY=           -160.0990
 XXXZ=             72.3435 YYYX=           -139.6145 YYYZ=            -40.3076 ZZZX=             10.1148
 ZZZY=              1.7761 XXYY=           -412.8332 XXZZ=           -526.6956 YYZZ=           -327.8214
 XXYZ=             66.6532 YYXZ=            -56.8940 ZZXY=              1.9856
 N-N= 1.081985710732D+03 E-N=-3.721369441839D+03  KE= 6.794411278817D+02
                          Isotropic Fermi Contact Couplings
        Atom                 a.u.       MegaHertz       Gauss      10(-4) cm-1
     1  N(14)              0.00606       1.95863       0.69889       0.65333
     2  C(13)             -0.00151      -1.70018      -0.60667      -0.56712
     3  C(13)              0.02026      22.77373       8.12623       7.59650
     4  C(13)             -0.02013     -22.62819      -8.07430      -7.54795
     5  N(14)              0.04211      13.60538       4.85474       4.53827
     6  C(13)              0.00427       4.79678       1.71161       1.60003
     7  C(13)              0.00379       4.25751       1.51919       1.42015
     8  C(13)             -0.00339      -3.80614      -1.35813      -1.26959
     9  C(13)              0.02271      25.53374       9.11107       8.51714
    10  C(13)             -0.01441     -16.20356      -5.78183      -5.40492
    11  C(13)              0.01403      15.76862       5.62664       5.25985
    12  C(13)              0.01216      13.67113       4.87820       4.56020
    13  C(13)              0.01376      15.46983       5.52002       5.16018
    14  C(13)             -0.01689     -18.98504      -6.77433      -6.33273
    15  C(13)              0.03182      35.77311      12.76474      11.93263
    16  C(13)             -0.00502      -5.64136      -2.01298      -1.88176
    17  C(13)              0.00165       1.86021       0.66377       0.62050
    18  H(1)              -0.00042      -1.87817      -0.67018      -0.62649
    19  H(1)              -0.00036      -1.61145      -0.57501      -0.53752
    20  H(1)              -0.00164      -7.31849      -2.61142      -2.44119
    21  H(1)              -0.00056      -2.48380      -0.88628      -0.82851
    22  H(1)              -0.00021      -0.94565      -0.33743      -0.31543
    23  H(1)              -0.00224     -10.00393      -3.56965      -3.33695
    24  H(1)               0.00100       4.45501       1.58966       1.48603
    25  H(1)              -0.00131      -5.87118      -2.09498      -1.95841
    26  H(1)              -0.00149      -6.67064      -2.38025      -2.22509
    27  H(1)               0.00098       4.37959       1.56275       1.46087
    28  H(1)              -0.00316     -14.12081      -5.03866      -4.71019
    29  H(1)              -0.00025      -1.11766      -0.39881      -0.37281
    30  H(1)              -0.00060      -2.68340      -0.95750      -0.89509
 --------------------------------------------------------
       Center         ----  Spin Dipole Couplings  ----
                      3XX-RR        3YY-RR        3ZZ-RR
 --------------------------------------------------------
     1   Atom       -0.027550     -0.027844      0.055393
     2   Atom       -0.000052     -0.005543      0.005595
     3   Atom       -0.062971     -0.062478      0.125449
     4   Atom        0.002404      0.031053     -0.033457
     5   Atom       -0.208443     -0.211014      0.419457
     6   Atom        0.000094     -0.042599      0.042505
     7   Atom        0.015520     -0.006339     -0.009181
     8   Atom        0.003907     -0.000755     -0.003152
     9   Atom       -0.032335      0.000647      0.031688
    10   Atom        0.007457      0.003198     -0.010655
    11   Atom       -0.013702      0.039854     -0.026152
    12   Atom       -0.069837     -0.006741      0.076577
    13   Atom       -0.066589      0.083345     -0.016756
    14   Atom        0.024338     -0.007023     -0.017314
    15   Atom       -0.108388      0.043258      0.065130
    16   Atom       -0.009106      0.010866     -0.001760
    17   Atom       -0.007900      0.017664     -0.009764
    18   Atom        0.000993      0.001027     -0.002021
    19   Atom       -0.001397      0.002980     -0.001583
    20   Atom        0.000131      0.002011     -0.002142
    21   Atom       -0.000055     -0.000843      0.000899
    22   Atom        0.000035     -0.002062      0.002028
    23   Atom        0.003286      0.003487     -0.006773
    24   Atom        0.001168     -0.000950     -0.000218
    25   Atom        0.001107     -0.004365      0.003258
    26   Atom       -0.002255     -0.001169      0.003424
    27   Atom        0.001302     -0.001688      0.000386
    28   Atom        0.014770     -0.005973     -0.008798
    29   Atom       -0.002000     -0.000456      0.002456
    30   Atom       -0.002681      0.001420      0.001261
 --------------------------------------------------------
                        XY            XZ            YZ
 --------------------------------------------------------
     1   Atom       -0.001037      0.002389      0.003743
     2   Atom       -0.000819     -0.001875      0.009181
     3   Atom       -0.002992      0.019993     -0.007479
     4   Atom       -0.006642     -0.015840     -0.003239
     5   Atom       -0.000147     -0.037609     -0.002372
     6   Atom       -0.034586     -0.078721      0.046314
     7   Atom       -0.019909     -0.014659      0.010253
     8   Atom       -0.012197     -0.011678      0.006896
     9   Atom       -0.064880     -0.080120      0.100771
    10   Atom        0.022998      0.026542     -0.028115
    11   Atom       -0.072007     -0.041889      0.056739
    12   Atom        0.048445     -0.067194     -0.125010
    13   Atom        0.024843     -0.015417     -0.083363
    14   Atom       -0.012652      0.015110      0.037937
    15   Atom        0.039007     -0.044427     -0.176793
    16   Atom        0.010591     -0.009997     -0.014798
    17   Atom        0.023874     -0.010786     -0.020168
    18   Atom        0.001576     -0.000430     -0.000035
    19   Atom       -0.002548     -0.000001     -0.000121
    20   Atom        0.007619     -0.000286     -0.000999
    21   Atom       -0.001801      0.003485     -0.003037
    22   Atom       -0.001042      0.003266     -0.001367
    23   Atom        0.009259     -0.004533      0.001925
    24   Atom        0.001685      0.001509     -0.000882
    25   Atom       -0.001215      0.005998     -0.001698
    26   Atom        0.004253      0.005912      0.005467
    27   Atom        0.000204      0.001436      0.002567
    28   Atom       -0.008243     -0.003621     -0.005503
    29   Atom        0.002018      0.002880      0.003904
    30   Atom        0.001243      0.001643      0.005272
 --------------------------------------------------------


 ---------------------------------------------------------------------------------
              Anisotropic Spin Dipole Couplings in Principal Axis System
 ---------------------------------------------------------------------------------

       Atom             a.u.   MegaHertz   Gauss  10(-4) cm-1        Axes

              Baa    -0.0290    -1.117    -0.399    -0.373  0.6437  0.7635 -0.0521
     1 N(14)  Bbb    -0.0267    -1.028    -0.367    -0.343  0.7648 -0.6443  0.0071
              Bcc     0.0556     2.145     0.766     0.716  0.0281  0.0444  0.9986
 
              Baa    -0.0107    -1.438    -0.513    -0.480 -0.0197  0.8703 -0.4921
     2 C(13)  Bbb    -0.0004    -0.056    -0.020    -0.019  0.9836  0.1050  0.1463
              Bcc     0.0111     1.494     0.533     0.498 -0.1790  0.4812  0.8581
 
              Baa    -0.0664    -8.911    -3.180    -2.972  0.8520  0.5190 -0.0686
     3 C(13)  Bbb    -0.0615    -8.247    -2.943    -2.751 -0.5129  0.8538  0.0890
              Bcc     0.1279    17.158     6.122     5.723  0.1047 -0.0407  0.9937
 
              Baa    -0.0399    -5.349    -1.909    -1.784  0.3604  0.0762  0.9297
     4 C(13)  Bbb     0.0073     0.985     0.352     0.329  0.9071  0.2038 -0.3683
              Bcc     0.0325     4.364     1.557     1.456 -0.2175  0.9760  0.0043
 
              Baa    -0.2112    -8.145    -2.906    -2.717  0.4979  0.8666  0.0330
     5 N(14)  Bbb    -0.2105    -8.119    -2.897    -2.708  0.8652 -0.4990  0.0498
              Bcc     0.4217    16.264     5.804     5.425 -0.0596 -0.0037  0.9982
 
              Baa    -0.0629    -8.446    -3.014    -2.817  0.0021  0.9162 -0.4008
     6 C(13)  Bbb    -0.0601    -8.059    -2.876    -2.688  0.8194  0.2282  0.5259
              Bcc     0.1230    16.505     5.890     5.506 -0.5732  0.3295  0.7502
 
              Baa    -0.0188    -2.523    -0.900    -0.842  0.3023  0.8454 -0.4405
     7 C(13)  Bbb    -0.0158    -2.117    -0.756    -0.706  0.5307  0.2346  0.8145
              Bcc     0.0346     4.640     1.656     1.548  0.7918 -0.4799 -0.3777
 
              Baa    -0.0126    -1.685    -0.601    -0.562  0.7058  0.3803  0.5977
     8 C(13)  Bbb    -0.0088    -1.181    -0.421    -0.394  0.1359  0.7554 -0.6411
              Bcc     0.0214     2.866     1.023     0.956  0.6953 -0.5337 -0.4814
 
              Baa    -0.0879   -11.796    -4.209    -3.935  0.5631 -0.4063  0.7196
     9 C(13)  Bbb    -0.0826   -11.083    -3.955    -3.697  0.6912  0.7089 -0.1405
              Bcc     0.1705    22.879     8.164     7.632 -0.4530  0.5765  0.6800
 
              Baa    -0.0530    -7.117    -2.540    -2.374 -0.5018  0.5422  0.6740
    10 C(13)  Bbb     0.0245     3.294     1.175     1.099  0.3568 -0.5800  0.7323
              Bcc     0.0285     3.823     1.364     1.275  0.7879  0.6080  0.0976
 
              Baa    -0.0644    -8.644    -3.085    -2.883  0.8527  0.4189  0.3122
    11 C(13)  Bbb    -0.0588    -7.886    -2.814    -2.630 -0.0521 -0.5263  0.8487
              Bcc     0.1232    16.530     5.898     5.514 -0.5199  0.7399  0.4269
 
              Baa    -0.0969   -12.996    -4.637    -4.335 -0.0090  0.8128  0.5824
    12 C(13)  Bbb    -0.0960   -12.877    -4.595    -4.295  0.9537 -0.1683  0.2495
              Bcc     0.1928    25.874     9.232     8.631 -0.3008 -0.5577  0.7736
 
              Baa    -0.0710    -9.530    -3.401    -3.179  0.9765 -0.0430  0.2114
    13 C(13)  Bbb    -0.0637    -8.554    -3.052    -2.853 -0.1609  0.5071  0.8467
              Bcc     0.1348    18.084     6.453     6.032  0.1436  0.8608 -0.4882
 
              Baa    -0.0553    -7.424    -2.649    -2.476 -0.2401 -0.6377  0.7319
    14 C(13)  Bbb     0.0261     3.498     1.248     1.167 -0.1222  0.7678  0.6289
              Bcc     0.0293     3.927     1.401     1.310  0.9630 -0.0616  0.2623
 
              Baa    -0.1237   -16.596    -5.922    -5.536  0.3450  0.6433  0.6835
    15 C(13)  Bbb    -0.1176   -15.785    -5.633    -5.265  0.9237 -0.3619 -0.1256
              Bcc     0.2413    32.381    11.554    10.801 -0.1666 -0.6747  0.7191
 
              Baa    -0.0161    -2.159    -0.770    -0.720  0.8290 -0.0188  0.5590
    16 C(13)  Bbb    -0.0104    -1.391    -0.496    -0.464 -0.4145  0.6504  0.6366
              Bcc     0.0265     3.550     1.267     1.184  0.3755  0.7594 -0.5313
 
              Baa    -0.0226    -3.030    -1.081    -1.011  0.7355 -0.5969 -0.3204
    17 C(13)  Bbb    -0.0195    -2.612    -0.932    -0.871  0.4936  0.1482  0.8570
              Bcc     0.0420     5.641     2.013     1.882  0.4641  0.7885 -0.4036
 
              Baa    -0.0021    -1.118    -0.399    -0.373  0.1765 -0.0780  0.9812
    18 H(1)   Bbb    -0.0005    -0.275    -0.098    -0.092 -0.6859  0.7052  0.1795
              Bcc     0.0026     1.393     0.497     0.465  0.7060  0.7047 -0.0710
 
              Baa    -0.0026    -1.371    -0.489    -0.457  0.9071  0.4177  0.0522
    19 H(1)   Bbb    -0.0016    -0.844    -0.301    -0.282 -0.0554 -0.0045  0.9985
              Bcc     0.0042     2.216     0.791     0.739 -0.4172  0.9086 -0.0190
 
              Baa    -0.0067    -3.549    -1.266    -1.184  0.7413 -0.6636 -0.1000
    20 H(1)   Bbb    -0.0022    -1.162    -0.414    -0.387  0.1314 -0.0026  0.9913
              Bcc     0.0088     4.710     1.681     1.571  0.6581  0.7481 -0.0853
 
              Baa    -0.0035    -1.864    -0.665    -0.622 -0.4637  0.5128  0.7225
    21 H(1)   Bbb    -0.0023    -1.217    -0.434    -0.406  0.6902  0.7204 -0.0684
              Bcc     0.0058     3.081     1.099     1.028  0.5556 -0.4669  0.6880
 
              Baa    -0.0025    -1.330    -0.475    -0.444  0.3055  0.9499  0.0666
    22 H(1)   Bbb    -0.0024    -1.269    -0.453    -0.423  0.7565 -0.1997 -0.6227
              Bcc     0.0049     2.599     0.928     0.867  0.5782 -0.2406  0.7796
 
              Baa    -0.0110    -5.868    -2.094    -1.957  0.5130 -0.4268  0.7448
    23 H(1)   Bbb    -0.0018    -0.975    -0.348    -0.325 -0.4724  0.5840  0.6601
              Bcc     0.0128     6.843     2.442     2.283  0.7167  0.6904 -0.0980
 
              Baa    -0.0028    -1.499    -0.535    -0.500 -0.4930  0.6950  0.5234
    24 H(1)   Bbb     0.0003     0.182     0.065     0.061 -0.0906 -0.6393  0.7636
              Bcc     0.0025     1.317     0.470     0.439  0.8653  0.3290  0.3781
 
              Baa    -0.0047    -2.523    -0.900    -0.842 -0.0439  0.9700  0.2391
    25 H(1)   Bbb    -0.0039    -2.071    -0.739    -0.691  0.7737  0.1844 -0.6061
              Bcc     0.0086     4.594     1.639     1.532  0.6320 -0.1584  0.7586
 
              Baa    -0.0063    -3.349    -1.195    -1.117  0.8666 -0.3940 -0.3061
    26 H(1)   Bbb    -0.0048    -2.543    -0.907    -0.848  0.1354  0.7761 -0.6159
              Bcc     0.0110     5.892     2.102     1.965  0.4802  0.4923  0.7260
 
              Baa    -0.0035    -1.872    -0.668    -0.624  0.1392  0.8025 -0.5802
    27 H(1)   Bbb     0.0004     0.219     0.078     0.073  0.7879 -0.4447 -0.4260
              Bcc     0.0031     1.653     0.590     0.551  0.5999  0.3979  0.6942
 
              Baa    -0.0153    -8.137    -2.904    -2.714  0.2652  0.6552  0.7074
    28 H(1)   Bbb    -0.0025    -1.333    -0.476    -0.445 -0.1803 -0.6870  0.7039
              Bcc     0.0178     9.471     3.379     3.159  0.9472 -0.3143 -0.0641
 
              Baa    -0.0034    -1.834    -0.655    -0.612  0.9245 -0.2565 -0.2819
    29 H(1)   Bbb    -0.0032    -1.689    -0.603    -0.563  0.0460  0.8093 -0.5856
              Bcc     0.0066     3.524     1.257     1.175  0.3784  0.5284  0.7600
 
              Baa    -0.0040    -2.148    -0.766    -0.716 -0.2977 -0.6281  0.7189
    30 H(1)   Bbb    -0.0030    -1.609    -0.574    -0.537  0.9323 -0.3533  0.0774
              Bcc     0.0070     3.757     1.340     1.253  0.2054  0.6933  0.6908
 

 ---------------------------------------------------------------------------------

 No NMR shielding tensors so no spin-rotation constants.
 Leave Link  601 at Wed May 11 06:27:54 2022, MaxMem=  6442450944 cpu:              10.3 elap:               0.7
 (Enter /mnt/gpfs3_amd/share/apps/amd/gaussian/g16-A.03/g16/l9999.exe)

 Test job not archived.
 1\1\GINC-ROME010\SP\ULC-wHPBE\def2SVP\C15H13N2(2+,2)\RDU230\11-May-202
 2\0\\#P LC-wHPBE/Def2SVP iop(3/107=0225700000, 3/108=0225700000)\\H13 
 C15 N2\\2,2\N,0,-2.519752,3.020298,0.107294\C,0,-1.24603,2.711008,0.00
 7759\C,0,0.0773,3.051229,-0.131739\C,0,-0.25209,1.712085,-0.047322\N,0
 ,0.056953,0.43377,-0.021433\C,0,-1.004734,-0.549494,0.038879\C,0,-2.07
 2259,-0.471928,-0.863862\C,0,-3.1091,-1.40791,-0.779653\C,0,-3.065084,
 -2.418333,0.186056\C,0,-1.982448,-2.496264,1.070002\C,0,-0.946615,-1.5
 61202,1.003719\C,0,1.444051,0.014822,-0.056527\C,0,1.830552,-0.97823,-
 0.963483\C,0,3.168758,-1.37651,-1.003088\C,0,4.107812,-0.785095,-0.150
 235\C,0,3.708105,0.203537,0.754186\C,0,2.36962,0.604384,0.810702\H,0,-
 3.220616,2.288308,0.222379\H,0,-2.82815,3.99247,0.090787\H,0,0.843701,
 3.824287,-0.230168\H,0,-2.078219,0.295297,-1.651216\H,0,-3.945206,-1.3
 58704,-1.48972\H,0,-3.874893,-3.157207,0.244083\H,0,-1.944487,-3.29225
 2,1.82515\H,0,-0.096521,-1.614263,1.696246\H,0,1.089668,-1.435062,-1.6
 32456\H,0,3.480987,-2.153931,-1.71253\H,0,5.158333,-1.101465,-0.187746
 \H,0,4.440228,0.660409,1.43275\H,0,2.04774,1.361038,1.539049\\Version=
 AM64L-G16RevA.03\State=2-A\HF=-687.1203042\S2=0.764444\S2-1=0.\S2A=0.7
 50166\RMSD=6.095e-09\Dipole=-0.8162593,2.1492808,0.0572853\Quadrupole=
 23.0860768,8.0998865,-31.1859633,-6.8810698,1.379636,0.6556291\PG=C01 
 [X(C15H13N2)]\\@


 Life may have no meaning.  Or even worse, it may have a
 meaning of which I disapprove.
                                 -- Ashleigh Brilliant
 Job cpu time:       0 days  0 hours 56 minutes 18.5 seconds.
 Elapsed time:       0 days  0 hours  3 minutes 34.9 seconds.
 File lengths (MBytes):  RWF=    208 Int=      0 D2E=      0 Chk=     16 Scr=     16
 Normal termination of Gaussian 16 at Wed May 11 06:27:54 2022.
