30
energy_cation1
N	-6.62756400	3.80539300	0.25752900	
C	-5.35384200	3.49610300	0.15799400	
C	-4.03051200	3.83632400	0.01849600	
C	-4.35990200	2.49718000	0.10291300	
N	-4.05085900	1.21886500	0.12880200	
C	-5.11254600	0.23560100	0.18911400	
C	-6.18007100	0.31316700	-0.71362700	
C	-7.21691200	-0.62281500	-0.62941800	
C	-7.17289600	-1.63323800	0.33629100	
C	-6.09026000	-1.71116900	1.22023700	
C	-5.05442700	-0.77610700	1.15395400	
C	-2.66376100	0.79991700	0.09370800	
C	-2.27726000	-0.19313500	-0.81324800	
C	-0.93905400	-0.59141500	-0.85285300	
C	0.00000000	0.00000000	0.00000000	
C	-0.39970700	0.98863200	0.90442100	
C	-1.73819200	1.38947900	0.96093700	
H	-7.32842800	3.07340300	0.37261400	
H	-6.93596200	4.77756500	0.24102200	
H	-3.26411100	4.60938200	-0.07993300	
H	-6.18603100	1.08039200	-1.50098100	
H	-8.05301800	-0.57360900	-1.33948500	
H	-7.98270500	-2.37211200	0.39431800	
H	-6.05229900	-2.50715700	1.97538500	
H	-4.20433300	-0.82916800	1.84648100	
H	-3.01814400	-0.64996700	-1.48222100	
H	-0.62682500	-1.36883600	-1.56229500	
H	1.05052100	-0.31637000	-0.03751100	
H	0.33241600	1.44550400	1.58298500	
H	-2.06007200	2.14613300	1.68928400	

