 Entering Gaussian System, Link 0=/mnt/gpfs3_amd/share/apps/amd/gaussian/g16-A.03/g16/g16
 Input=/scratch/rdu230/d3tales/high_throughput/runfiles//06IVBN/gaussian/gas_phase/opt/freq_opt_groundState.com
 Output=/scratch/rdu230/d3tales/high_throughput/runfiles//06IVBN/gaussian/gas_phase/opt/freq_opt_groundState.log
 Initial command:
 /mnt/gpfs3_amd/share/apps/amd/gaussian/g16-A.03/g16/l1.exe "/scratch/rdu230/d3tales/high_throughput/runfiles/06IVBN/gaussian/gas_phase/opt/Gau-3304452.inp" -scrdir="/scratch/rdu230/d3tales/high_throughput/runfiles/06IVBN/gaussian/gas_phase/opt/"
 Entering Link 1 = /mnt/gpfs3_amd/share/apps/amd/gaussian/g16-A.03/g16/l1.exe PID=   3304453.
  
 Copyright (c) 1988,1990,1992,1993,1995,1998,2003,2009,2016,
            Gaussian, Inc.  All Rights Reserved.
  
 This is part of the Gaussian(R) 16 program.  It is based on
 the Gaussian(R) 09 system (copyright 2009, Gaussian, Inc.),
 the Gaussian(R) 03 system (copyright 2003, Gaussian, Inc.),
 the Gaussian(R) 98 system (copyright 1998, Gaussian, Inc.),
 the Gaussian(R) 94 system (copyright 1995, Gaussian, Inc.),
 the Gaussian 92(TM) system (copyright 1992, Gaussian, Inc.),
 the Gaussian 90(TM) system (copyright 1990, Gaussian, Inc.),
 the Gaussian 88(TM) system (copyright 1988, Gaussian, Inc.),
 the Gaussian 86(TM) system (copyright 1986, Carnegie Mellon
 University), and the Gaussian 82(TM) system (copyright 1983,
 Carnegie Mellon University). Gaussian is a federally registered
 trademark of Gaussian, Inc.
  
 This software contains proprietary and confidential information,
 including trade secrets, belonging to Gaussian, Inc.
  
 This software is provided under written license and may be
 used, copied, transmitted, or stored only in accord with that
 written license.
  
 The following legend is applicable only to US Government
 contracts under FAR:
  
                    RESTRICTED RIGHTS LEGEND
  
 Use, reproduction and disclosure by the US Government is
 subject to restrictions as set forth in subparagraphs (a)
 and (c) of the Commercial Computer Software - Restricted
 Rights clause in FAR 52.227-19.
  
 Gaussian, Inc.
 340 Quinnipiac St., Bldg. 40, Wallingford CT 06492
  
  
 ---------------------------------------------------------------
 Warning -- This program may not be used in any manner that
 competes with the business of Gaussian, Inc. or will provide
 assistance to any competitor of Gaussian, Inc.  The licensee
 of this program is prohibited from giving any competitor of
 Gaussian, Inc. access to this program.  By using this program,
 the user acknowledges that Gaussian, Inc. is engaged in the
 business of creating and licensing software in the field of
 computational chemistry and represents and warrants to the
 licensee that it is not a competitor of Gaussian, Inc. and that
 it will not use this program in any manner prohibited above.
 ---------------------------------------------------------------
  

 Cite this work as:
 Gaussian 16, Revision A.03,
 M. J. Frisch, G. W. Trucks, H. B. Schlegel, G. E. Scuseria, 
 M. A. Robb, J. R. Cheeseman, G. Scalmani, V. Barone, 
 G. A. Petersson, H. Nakatsuji, X. Li, M. Caricato, A. V. Marenich, 
 J. Bloino, B. G. Janesko, R. Gomperts, B. Mennucci, H. P. Hratchian, 
 J. V. Ortiz, A. F. Izmaylov, J. L. Sonnenberg, D. Williams-Young, 
 F. Ding, F. Lipparini, F. Egidi, J. Goings, B. Peng, A. Petrone, 
 T. Henderson, D. Ranasinghe, V. G. Zakrzewski, J. Gao, N. Rega, 
 G. Zheng, W. Liang, M. Hada, M. Ehara, K. Toyota, R. Fukuda, 
 J. Hasegawa, M. Ishida, T. Nakajima, Y. Honda, O. Kitao, H. Nakai, 
 T. Vreven, K. Throssell, J. A. Montgomery, Jr., J. E. Peralta, 
 F. Ogliaro, M. J. Bearpark, J. J. Heyd, E. N. Brothers, K. N. Kudin, 
 V. N. Staroverov, T. A. Keith, R. Kobayashi, J. Normand, 
 K. Raghavachari, A. P. Rendell, J. C. Burant, S. S. Iyengar, 
 J. Tomasi, M. Cossi, J. M. Millam, M. Klene, C. Adamo, R. Cammi, 
 J. W. Ochterski, R. L. Martin, K. Morokuma, O. Farkas, 
 J. B. Foresman, and D. J. Fox, Gaussian, Inc., Wallingford CT, 2016.
 
 ******************************************
 Gaussian 16:  AM64L-G16RevA.03 25-Dec-2016
                11-May-2022 
 ******************************************
 %chk=/scratch/rdu230/d3tales/high_throughput/runfiles//06IVBN/gaussian/gas_phase
 /opt/freq_opt_groundState.chk
 %mem=48GB
 %nprocshared=16
 Will use up to   16 processors via shared memory.
 %oldchk=/scratch/rdu230/d3tales/high_throughput/runfiles//06IVBN/gaussian/gas_ph
 ase/opt/opt_groundState.chk
 Copying data from "/scratch/rdu230/d3tales/high_throughput/runfiles//06IVBN/gaussian/gas_phase/opt/opt_groundState.chk" to current chk file "/scratch/rdu230/d3tales/high_throughput/runfiles//06IVBN/gaussian/gas_phase/opt/freq_opt_groundState.chk"
 IOpt=  2 FromEx=T IUOpen= 4 IOptOp= 5 NList=   0 IFRang= 0 IUIn= 4 IUOut= 2.
 ----------------------------------------------------------------------
 #P LC-wHPBE/Def2SVP Geom=AllCheck Guess=TCheck SCRF=Check freq iop(3/1
 07=0225700000, 3/108=0225700000)
 ----------------------------------------------------------------------
 1/10=4,29=7,30=1,38=1,40=1/1,3;
 2/12=2,40=1/2;
 3/5=43,7=101,11=2,14=-4,25=1,30=1,70=2,71=2,74=-71,107=225700000,108=225700000,116=-2,140=1/1,2,3;
 4/5=101/1;
 5/5=2,38=6,98=1/2;
 8/6=4,10=90,11=11/1;
 11/6=1,8=1,9=11,15=111,16=1/1,2,10;
 10/6=1/2;
 6/7=2,8=2,9=2,10=2,28=1/1;
 7/8=1,10=1,25=1/1,2,3,16;
 1/10=4,30=1/3;
 99//99;
 Leave Link    1 at Wed May 11 06:11:58 2022, MaxMem=  6442450944 cpu:               4.7 elap:               0.3
 (Enter /mnt/gpfs3_amd/share/apps/amd/gaussian/g16-A.03/g16/l101.exe)
 Structure from the checkpoint file:  "/scratch/rdu230/d3tales/high_throughput/runfiles//06IVBN/gaussian/gas_phase/opt/freq_opt_groundState.chk"
 ----------
 H13 C15 N2
 ----------
 Charge =  1 Multiplicity = 1
 Redundant internal coordinates found in file.  (old form).
 N,0,-0.32713645,3.9519227609,-0.3236624398
 C,0,0.5528897551,2.9794847209,-0.2350509998
 C,0,1.843682741,2.5120950066,-0.1924750295
 C,0,0.810457595,1.5971137041,-0.1277761452
 N,0,0.3408441001,0.3721647899,-0.0317040332
 C,0,-1.0894350913,0.155449307,-0.1021472791
 C,0,-1.8251888386,0.7247965018,-1.1486064773
 C,0,-3.2109953197,0.5356540886,-1.1928596828
 C,0,-3.8461187131,-0.2297165642,-0.2098486714
 C,0,-3.0962031379,-0.8095794869,0.8201603872
 C,0,-1.7136337487,-0.6188994578,0.8820302636
 C,0,1.2451968162,-0.7475580651,0.1390476156
 C,0,1.0982672893,-1.8703620702,-0.6830397827
 C,0,1.9746755992,-2.9463012852,-0.5241187563
 C,0,2.9872854169,-2.8965888833,0.4408174218
 C,0,3.1211709612,-1.7703489685,1.2586148019
 C,0,2.2441949228,-0.6904944223,1.1163364353
 H,0,-1.3259715685,3.7476892222,-0.2939461475
 H,0,-0.0304481589,4.9245604974,-0.4039843484
 H,0,2.9175974638,2.7154700448,-0.1972658478
 H,0,-1.3147177443,1.2854567845,-1.9446439949
 H,0,-3.793437195,0.9717486678,-2.0152185385
 H,0,-4.9320810551,-0.3846686624,-0.251911929
 H,0,-3.593253022,-1.4148907937,1.5894629508
 H,0,-1.1200493457,-1.0676465631,1.6890945458
 H,0,0.304445028,-1.9011305665,-1.4406870176
 H,0,1.8674991355,-3.8306036295,-1.1657569972
 H,0,3.6738718096,-3.7449132831,0.5592982365
 H,0,3.9068235818,-1.7337511285,2.0245105707
 H,0,2.3297671731,0.1838487339,1.7757478889
 Recover connectivity data from disk.
 ITRead=  0  0  0  0  0  0  0  0  0  0  0  0  0  0  0  0  0  0  0  0
 ITRead=  0  0  0  0  0  0  0  0  0  0
 MicOpt= -1 -1 -1 -1 -1 -1 -1 -1 -1 -1 -1 -1 -1 -1 -1 -1 -1 -1 -1 -1
 MicOpt= -1 -1 -1 -1 -1 -1 -1 -1 -1 -1
 NAtoms=     30 NQM=       30 NQMF=       0 NMMI=      0 NMMIF=      0
                NMic=       0 NMicF=      0.
                    Isotopes and Nuclear Properties:
 (Nuclear quadrupole moments (NQMom) in fm**2, nuclear magnetic moments (NMagM)
  in nuclear magnetons)

  Atom         1           2           3           4           5           6           7           8           9          10
 IAtWgt=          14          12          12          12          14          12          12          12          12          12
 AtmWgt=  14.0030740  12.0000000  12.0000000  12.0000000  14.0030740  12.0000000  12.0000000  12.0000000  12.0000000  12.0000000
 NucSpn=           2           0           0           0           2           0           0           0           0           0
 AtZEff=   4.5500000   3.6000000   3.6000000   3.6000000   4.5500000   3.6000000   3.6000000   3.6000000   3.6000000   3.6000000
 NQMom=    2.0440000   0.0000000   0.0000000   0.0000000   2.0440000   0.0000000   0.0000000   0.0000000   0.0000000   0.0000000
 NMagM=    0.4037610   0.0000000   0.0000000   0.0000000   0.4037610   0.0000000   0.0000000   0.0000000   0.0000000   0.0000000
 AtZNuc=   7.0000000   6.0000000   6.0000000   6.0000000   7.0000000   6.0000000   6.0000000   6.0000000   6.0000000   6.0000000

  Atom        11          12          13          14          15          16          17          18          19          20
 IAtWgt=          12          12          12          12          12          12          12           1           1           1
 AtmWgt=  12.0000000  12.0000000  12.0000000  12.0000000  12.0000000  12.0000000  12.0000000   1.0078250   1.0078250   1.0078250
 NucSpn=           0           0           0           0           0           0           0           1           1           1
 AtZEff=   3.6000000   3.6000000   3.6000000   3.6000000   3.6000000   3.6000000   3.6000000   1.0000000   1.0000000   1.0000000
 NQMom=    0.0000000   0.0000000   0.0000000   0.0000000   0.0000000   0.0000000   0.0000000   0.0000000   0.0000000   0.0000000
 NMagM=    0.0000000   0.0000000   0.0000000   0.0000000   0.0000000   0.0000000   0.0000000   2.7928460   2.7928460   2.7928460
 AtZNuc=   6.0000000   6.0000000   6.0000000   6.0000000   6.0000000   6.0000000   6.0000000   1.0000000   1.0000000   1.0000000

  Atom        21          22          23          24          25          26          27          28          29          30
 IAtWgt=           1           1           1           1           1           1           1           1           1           1
 AtmWgt=   1.0078250   1.0078250   1.0078250   1.0078250   1.0078250   1.0078250   1.0078250   1.0078250   1.0078250   1.0078250
 NucSpn=           1           1           1           1           1           1           1           1           1           1
 AtZEff=   1.0000000   1.0000000   1.0000000   1.0000000   1.0000000   1.0000000   1.0000000   1.0000000   1.0000000   1.0000000
 NQMom=    0.0000000   0.0000000   0.0000000   0.0000000   0.0000000   0.0000000   0.0000000   0.0000000   0.0000000   0.0000000
 NMagM=    2.7928460   2.7928460   2.7928460   2.7928460   2.7928460   2.7928460   2.7928460   2.7928460   2.7928460   2.7928460
 AtZNuc=   1.0000000   1.0000000   1.0000000   1.0000000   1.0000000   1.0000000   1.0000000   1.0000000   1.0000000   1.0000000
 Leave Link  101 at Wed May 11 06:11:58 2022, MaxMem=  6442450944 cpu:               3.1 elap:               0.2
 (Enter /mnt/gpfs3_amd/share/apps/amd/gaussian/g16-A.03/g16/l103.exe)

 GradGradGradGradGradGradGradGradGradGradGradGradGradGradGradGradGradGrad
 Berny optimization.
 Initialization pass.
                           ----------------------------
                           !    Initial Parameters    !
                           ! (Angstroms and Degrees)  !
 --------------------------                            --------------------------
 ! Name  Definition              Value          Derivative Info.                !
 --------------------------------------------------------------------------------
 ! R1    R(1,2)                  1.3145         calculate D2E/DX2 analytically  !
 ! R2    R(1,18)                 1.0199         calculate D2E/DX2 analytically  !
 ! R3    R(1,19)                 1.02           calculate D2E/DX2 analytically  !
 ! R4    R(2,3)                  1.3735         calculate D2E/DX2 analytically  !
 ! R5    R(2,4)                  1.4102         calculate D2E/DX2 analytically  !
 ! R6    R(3,4)                  1.3816         calculate D2E/DX2 analytically  !
 ! R7    R(3,20)                 1.093          calculate D2E/DX2 analytically  !
 ! R8    R(4,5)                  1.3154         calculate D2E/DX2 analytically  !
 ! R9    R(5,6)                  1.4483         calculate D2E/DX2 analytically  !
 ! R10   R(5,12)                 1.4494         calculate D2E/DX2 analytically  !
 ! R11   R(6,7)                  1.4002         calculate D2E/DX2 analytically  !
 ! R12   R(6,11)                 1.3992         calculate D2E/DX2 analytically  !
 ! R13   R(7,8)                  1.3994         calculate D2E/DX2 analytically  !
 ! R14   R(7,21)                 1.0994         calculate D2E/DX2 analytically  !
 ! R15   R(8,9)                  1.3984         calculate D2E/DX2 analytically  !
 ! R16   R(8,22)                 1.098          calculate D2E/DX2 analytically  !
 ! R17   R(9,10)                 1.3998         calculate D2E/DX2 analytically  !
 ! R18   R(9,23)                 1.0978         calculate D2E/DX2 analytically  !
 ! R19   R(10,11)                1.397          calculate D2E/DX2 analytically  !
 ! R20   R(10,24)                1.0979         calculate D2E/DX2 analytically  !
 ! R21   R(11,25)                1.0978         calculate D2E/DX2 analytically  !
 ! R22   R(12,13)                1.3993         calculate D2E/DX2 analytically  !
 ! R23   R(12,17)                1.3987         calculate D2E/DX2 analytically  !
 ! R24   R(13,14)                1.3968         calculate D2E/DX2 analytically  !
 ! R25   R(13,26)                1.0978         calculate D2E/DX2 analytically  !
 ! R26   R(14,15)                1.3996         calculate D2E/DX2 analytically  !
 ! R27   R(14,27)                1.0978         calculate D2E/DX2 analytically  !
 ! R28   R(15,16)                1.3983         calculate D2E/DX2 analytically  !
 ! R29   R(15,28)                1.0978         calculate D2E/DX2 analytically  !
 ! R30   R(16,17)                1.3984         calculate D2E/DX2 analytically  !
 ! R31   R(16,29)                1.0978         calculate D2E/DX2 analytically  !
 ! R32   R(17,30)                1.0985         calculate D2E/DX2 analytically  !
 ! A1    A(2,1,18)             120.3662         calculate D2E/DX2 analytically  !
 ! A2    A(2,1,19)             121.0627         calculate D2E/DX2 analytically  !
 ! A3    A(18,1,19)            118.5594         calculate D2E/DX2 analytically  !
 ! A4    A(1,2,3)              152.0073         calculate D2E/DX2 analytically  !
 ! A5    A(1,2,4)              148.4901         calculate D2E/DX2 analytically  !
 ! A6    A(2,3,20)             149.3087         calculate D2E/DX2 analytically  !
 ! A7    A(4,3,20)             149.1135         calculate D2E/DX2 analytically  !
 ! A8    A(2,4,5)              148.5595         calculate D2E/DX2 analytically  !
 ! A9    A(3,4,5)              152.5123         calculate D2E/DX2 analytically  !
 ! A10   A(4,5,6)              119.2327         calculate D2E/DX2 analytically  !
 ! A11   A(4,5,12)             120.3489         calculate D2E/DX2 analytically  !
 ! A12   A(6,5,12)             120.4182         calculate D2E/DX2 analytically  !
 ! A13   A(5,6,7)              119.6318         calculate D2E/DX2 analytically  !
 ! A14   A(5,6,11)             119.2843         calculate D2E/DX2 analytically  !
 ! A15   A(7,6,11)             121.0837         calculate D2E/DX2 analytically  !
 ! A16   A(6,7,8)              119.2781         calculate D2E/DX2 analytically  !
 ! A17   A(6,7,21)             120.3007         calculate D2E/DX2 analytically  !
 ! A18   A(8,7,21)             120.3892         calculate D2E/DX2 analytically  !
 ! A19   A(7,8,9)              120.1015         calculate D2E/DX2 analytically  !
 ! A20   A(7,8,22)             119.6899         calculate D2E/DX2 analytically  !
 ! A21   A(9,8,22)             120.194          calculate D2E/DX2 analytically  !
 ! A22   A(8,9,10)             120.0432         calculate D2E/DX2 analytically  !
 ! A23   A(8,9,23)             119.9748         calculate D2E/DX2 analytically  !
 ! A24   A(10,9,23)            119.9789         calculate D2E/DX2 analytically  !
 ! A25   A(9,10,11)            120.4124         calculate D2E/DX2 analytically  !
 ! A26   A(9,10,24)            120.0962         calculate D2E/DX2 analytically  !
 ! A27   A(11,10,24)           119.4907         calculate D2E/DX2 analytically  !
 ! A28   A(6,11,10)            119.0695         calculate D2E/DX2 analytically  !
 ! A29   A(6,11,25)            120.1405         calculate D2E/DX2 analytically  !
 ! A30   A(10,11,25)           120.79           calculate D2E/DX2 analytically  !
 ! A31   A(5,12,13)            119.0224         calculate D2E/DX2 analytically  !
 ! A32   A(5,12,17)            119.7648         calculate D2E/DX2 analytically  !
 ! A33   A(13,12,17)           121.2128         calculate D2E/DX2 analytically  !
 ! A34   A(12,13,14)           119.0358         calculate D2E/DX2 analytically  !
 ! A35   A(12,13,26)           120.2569         calculate D2E/DX2 analytically  !
 ! A36   A(14,13,26)           120.7072         calculate D2E/DX2 analytically  !
 ! A37   A(13,14,15)           120.3335         calculate D2E/DX2 analytically  !
 ! A38   A(13,14,27)           119.5205         calculate D2E/DX2 analytically  !
 ! A39   A(15,14,27)           120.1452         calculate D2E/DX2 analytically  !
 ! A40   A(14,15,16)           120.0732         calculate D2E/DX2 analytically  !
 ! A41   A(14,15,28)           119.9641         calculate D2E/DX2 analytically  !
 ! A42   A(16,15,28)           119.9619         calculate D2E/DX2 analytically  !
 ! A43   A(15,16,17)           120.1615         calculate D2E/DX2 analytically  !
 ! A44   A(15,16,29)           120.2261         calculate D2E/DX2 analytically  !
 ! A45   A(17,16,29)           119.6078         calculate D2E/DX2 analytically  !
 ! A46   A(12,17,16)           119.1775         calculate D2E/DX2 analytically  !
 ! A47   A(12,17,30)           120.5011         calculate D2E/DX2 analytically  !
 ! A48   A(16,17,30)           120.3138         calculate D2E/DX2 analytically  !
 ! D1    D(18,1,2,3)          -179.2811         calculate D2E/DX2 analytically  !
 ! D2    D(18,1,2,4)             2.1672         calculate D2E/DX2 analytically  !
 ! D3    D(19,1,2,3)            -0.5438         calculate D2E/DX2 analytically  !
 ! D4    D(19,1,2,4)          -179.0954         calculate D2E/DX2 analytically  !
 ! D5    D(1,2,3,20)             1.4076         calculate D2E/DX2 analytically  !
 ! D6    D(1,2,4,5)             -1.1777         calculate D2E/DX2 analytically  !
 ! D7    D(2,3,4,20)          -179.4739         calculate D2E/DX2 analytically  !
 ! D8    D(20,3,4,5)            -0.0868         calculate D2E/DX2 analytically  !
 ! D9    D(2,4,5,6)              4.0438         calculate D2E/DX2 analytically  !
 ! D10   D(2,4,5,12)          -176.1211         calculate D2E/DX2 analytically  !
 ! D11   D(3,4,5,6)           -176.6776         calculate D2E/DX2 analytically  !
 ! D12   D(3,4,5,12)             3.1575         calculate D2E/DX2 analytically  !
 ! D13   D(4,5,6,7)             50.0458         calculate D2E/DX2 analytically  !
 ! D14   D(4,5,6,11)          -129.7917         calculate D2E/DX2 analytically  !
 ! D15   D(12,5,6,7)          -129.7892         calculate D2E/DX2 analytically  !
 ! D16   D(12,5,6,11)           50.3734         calculate D2E/DX2 analytically  !
 ! D17   D(4,5,12,13)         -131.1615         calculate D2E/DX2 analytically  !
 ! D18   D(4,5,12,17)           48.8658         calculate D2E/DX2 analytically  !
 ! D19   D(6,5,12,13)           48.6716         calculate D2E/DX2 analytically  !
 ! D20   D(6,5,12,17)         -131.3011         calculate D2E/DX2 analytically  !
 ! D21   D(5,6,7,8)           -178.5759         calculate D2E/DX2 analytically  !
 ! D22   D(5,6,7,21)             3.4712         calculate D2E/DX2 analytically  !
 ! D23   D(11,6,7,8)             1.2586         calculate D2E/DX2 analytically  !
 ! D24   D(11,6,7,21)         -176.6944         calculate D2E/DX2 analytically  !
 ! D25   D(5,6,11,10)          179.1146         calculate D2E/DX2 analytically  !
 ! D26   D(5,6,11,25)           -0.8781         calculate D2E/DX2 analytically  !
 ! D27   D(7,6,11,10)           -0.7204         calculate D2E/DX2 analytically  !
 ! D28   D(7,6,11,25)          179.2869         calculate D2E/DX2 analytically  !
 ! D29   D(6,7,8,9)             -0.8563         calculate D2E/DX2 analytically  !
 ! D30   D(6,7,8,22)          -179.469          calculate D2E/DX2 analytically  !
 ! D31   D(21,7,8,9)           177.0948         calculate D2E/DX2 analytically  !
 ! D32   D(21,7,8,22)           -1.5179         calculate D2E/DX2 analytically  !
 ! D33   D(7,8,9,10)            -0.0643         calculate D2E/DX2 analytically  !
 ! D34   D(7,8,9,23)          -179.4196         calculate D2E/DX2 analytically  !
 ! D35   D(22,8,9,10)          178.5413         calculate D2E/DX2 analytically  !
 ! D36   D(22,8,9,23)           -0.8139         calculate D2E/DX2 analytically  !
 ! D37   D(8,9,10,11)            0.6104         calculate D2E/DX2 analytically  !
 ! D38   D(8,9,10,24)         -179.6863         calculate D2E/DX2 analytically  !
 ! D39   D(23,9,10,11)         179.9656         calculate D2E/DX2 analytically  !
 ! D40   D(23,9,10,24)          -0.3311         calculate D2E/DX2 analytically  !
 ! D41   D(9,10,11,6)           -0.2207         calculate D2E/DX2 analytically  !
 ! D42   D(9,10,11,25)         179.7719         calculate D2E/DX2 analytically  !
 ! D43   D(24,10,11,6)        -179.9258         calculate D2E/DX2 analytically  !
 ! D44   D(24,10,11,25)          0.0668         calculate D2E/DX2 analytically  !
 ! D45   D(5,12,13,14)         179.6209         calculate D2E/DX2 analytically  !
 ! D46   D(5,12,13,26)          -0.3763         calculate D2E/DX2 analytically  !
 ! D47   D(17,12,13,14)         -0.4068         calculate D2E/DX2 analytically  !
 ! D48   D(17,12,13,26)        179.596          calculate D2E/DX2 analytically  !
 ! D49   D(5,12,17,16)        -179.1592         calculate D2E/DX2 analytically  !
 ! D50   D(5,12,17,30)           1.8428         calculate D2E/DX2 analytically  !
 ! D51   D(13,12,17,16)          0.8687         calculate D2E/DX2 analytically  !
 ! D52   D(13,12,17,30)       -178.1293         calculate D2E/DX2 analytically  !
 ! D53   D(12,13,14,15)         -0.2481         calculate D2E/DX2 analytically  !
 ! D54   D(12,13,14,27)       -179.9148         calculate D2E/DX2 analytically  !
 ! D55   D(26,13,14,15)        179.7491         calculate D2E/DX2 analytically  !
 ! D56   D(26,13,14,27)          0.0824         calculate D2E/DX2 analytically  !
 ! D57   D(13,14,15,16)          0.4313         calculate D2E/DX2 analytically  !
 ! D58   D(13,14,15,28)       -179.8891         calculate D2E/DX2 analytically  !
 ! D59   D(27,14,15,16)       -179.9041         calculate D2E/DX2 analytically  !
 ! D60   D(27,14,15,28)         -0.2245         calculate D2E/DX2 analytically  !
 ! D61   D(14,15,16,17)          0.038          calculate D2E/DX2 analytically  !
 ! D62   D(14,15,16,29)        179.254          calculate D2E/DX2 analytically  !
 ! D63   D(28,15,16,17)       -179.6416         calculate D2E/DX2 analytically  !
 ! D64   D(28,15,16,29)         -0.4256         calculate D2E/DX2 analytically  !
 ! D65   D(15,16,17,12)         -0.6775         calculate D2E/DX2 analytically  !
 ! D66   D(15,16,17,30)        178.3224         calculate D2E/DX2 analytically  !
 ! D67   D(29,16,17,12)       -179.8984         calculate D2E/DX2 analytically  !
 ! D68   D(29,16,17,30)         -0.8985         calculate D2E/DX2 analytically  !
 --------------------------------------------------------------------------------
 Trust Radius=3.00D-01 FncErr=1.00D-07 GrdErr=1.00D-07 EigMax=2.50D+02 EigMin=1.00D-04
 Number of steps in this run=      2 maximum allowed number of steps=      2.
 GradGradGradGradGradGradGradGradGradGradGradGradGradGradGradGradGradGrad

 Leave Link  103 at Wed May 11 06:11:58 2022, MaxMem=  6442450944 cpu:               0.1 elap:               0.0
 (Enter /mnt/gpfs3_amd/share/apps/amd/gaussian/g16-A.03/g16/l202.exe)
                          Input orientation:                          
 ---------------------------------------------------------------------
 Center     Atomic      Atomic             Coordinates (Angstroms)
 Number     Number       Type             X           Y           Z
 ---------------------------------------------------------------------
      1          7           0       -0.327136    3.951923   -0.323662
      2          6           0        0.552890    2.979485   -0.235051
      3          6           0        1.843683    2.512095   -0.192475
      4          6           0        0.810458    1.597114   -0.127776
      5          7           0        0.340844    0.372165   -0.031704
      6          6           0       -1.089435    0.155449   -0.102147
      7          6           0       -1.825189    0.724797   -1.148606
      8          6           0       -3.210995    0.535654   -1.192860
      9          6           0       -3.846119   -0.229717   -0.209849
     10          6           0       -3.096203   -0.809579    0.820160
     11          6           0       -1.713634   -0.618899    0.882030
     12          6           0        1.245197   -0.747558    0.139048
     13          6           0        1.098267   -1.870362   -0.683040
     14          6           0        1.974676   -2.946301   -0.524119
     15          6           0        2.987285   -2.896589    0.440817
     16          6           0        3.121171   -1.770349    1.258615
     17          6           0        2.244195   -0.690494    1.116336
     18          1           0       -1.325972    3.747689   -0.293946
     19          1           0       -0.030448    4.924560   -0.403984
     20          1           0        2.917597    2.715470   -0.197266
     21          1           0       -1.314718    1.285457   -1.944644
     22          1           0       -3.793437    0.971749   -2.015219
     23          1           0       -4.932081   -0.384669   -0.251912
     24          1           0       -3.593253   -1.414891    1.589463
     25          1           0       -1.120049   -1.067647    1.689095
     26          1           0        0.304445   -1.901131   -1.440687
     27          1           0        1.867499   -3.830604   -1.165757
     28          1           0        3.673872   -3.744913    0.559298
     29          1           0        3.906824   -1.733751    2.024511
     30          1           0        2.329767    0.183849    1.775748
 ---------------------------------------------------------------------
                    Distance matrix (angstroms):
                    1          2          3          4          5
     1  N    0.000000
     2  C    1.314509   0.000000
     3  C    2.608212   1.373467   0.000000
     4  C    2.622521   1.410248   1.381641   0.000000
     5  N    3.653232   2.623820   2.619861   1.315396   0.000000
     6  C    3.878579   3.269567   3.763658   2.385088   1.448318
     7  C    3.652265   3.401979   4.191568   2.957983   2.462421
     8  C    4.554452   4.588740   5.518773   4.293388   3.740398
     9  C    5.466470   5.445262   6.315986   5.002774   4.233752
    10  C    5.625652   5.365292   6.038330   4.685377   3.733026
    11  C    4.926305   4.396973   4.859237   3.507344   2.457234
    12  C    4.977093   3.809211   3.330680   2.399516   1.449410
    13  C    6.004992   4.900933   4.472385   3.523427   2.454965
    14  C    7.274889   6.100818   5.470031   4.706922   3.731500
    15  C    7.646694   6.396196   5.564418   5.025459   4.232219
    16  C    6.865772   5.602502   4.698613   4.312920   3.739720
    17  C    5.498853   4.260928   3.482812   2.972637   2.463734
    18  H    1.019934   2.030696   3.403483   3.035938   3.773753
    19  H    1.020049   2.037680   3.062204   3.443155   4.582658
    20  H    3.474635   2.379700   1.093013   2.386543   3.486854
    21  H    3.273063   3.046374   3.814477   2.813274   2.689670
    22  H    4.874222   5.107892   6.121453   5.014915   4.624512
    23  H    6.325874   6.434494   7.369243   6.076152   5.331513
    24  H    6.567363   6.311092   6.939509   5.604797   4.615070
    25  H    5.465892   4.783339   5.013837   3.758833   2.677389
    26  H    5.992067   5.033457   4.837752   3.770610   2.674777
    27  H    8.129776   6.997979   6.416983   5.626265   4.613027
    28  H    8.719459   7.455806   6.562386   6.099874   5.329980
    29  H    7.467745   6.210401   5.215245   5.031350   4.623755
    30  H    5.066068   3.875072   3.087217   2.815852   2.694097
                    6          7          8          9         10
     6  C    0.000000
     7  C    1.400202   0.000000
     8  C    2.415621   1.399354   0.000000
     9  C    2.785544   2.424153   1.398386   0.000000
    10  C    2.410197   2.801041   2.423857   1.399833   0.000000
    11  C    1.399230   2.437509   2.807179   2.427170   1.397027
    12  C    2.514777   3.640487   4.824755   5.129462   4.394942
    13  C    3.037662   3.936775   4.961711   5.230925   4.580224
    14  C    4.380376   5.320330   6.281911   6.431193   5.664493
    15  C    5.121464   6.229013   7.271030   7.364169   6.442697
    16  C    4.825927   6.040442   7.171032   7.285126   6.306430
    17  C    3.648755   4.867535   6.049374   6.250040   5.349930
    18  H    3.605125   3.180808   3.831257   4.709349   5.014345
    19  H    4.894587   4.627480   5.477290   6.415887   6.616475
    20  H    4.755950   5.230856   6.580460   7.377136   7.044638
    21  H    2.173123   1.099362   2.173304   3.422463   3.899617
    22  H    3.411424   2.164718   1.098040   2.169252   3.420327
    23  H    3.883308   3.418736   2.166682   1.097768   2.168026
    24  H    3.405381   3.898889   3.419366   2.169355   1.097856
    25  H    2.169204   3.429668   3.904906   3.426305   2.174127
    26  H    2.822076   3.393545   4.284584   4.640665   4.226976
    27  H    5.075760   5.864120   6.697466   6.820966   6.140749
    28  H    6.191884   7.289370   8.294258   8.336573   7.383641
    29  H    5.749291   6.997792   8.134188   8.207472   7.165678
    30  H    3.901056   5.109612   6.295748   6.500400   5.598321
                   11         12         13         14         15
    11  C    0.000000
    12  C    3.053400   0.000000
    13  C    3.452881   1.399323   0.000000
    14  C    4.582323   2.409647   1.396779   0.000000
    15  C    5.242249   2.782853   2.425817   1.399626   0.000000
    16  C    4.984274   2.412221   2.805738   2.423934   1.398261
    17  C    3.965405   1.398695   2.437825   2.802213   2.423915
    18  H    4.538755   5.196695   6.131136   7.467045   7.955532
    19  H    5.934382   5.839099   6.893681   8.123141   8.425603
    20  H    5.807857   3.860388   4.957398   5.749051   5.648647
    21  H    3.431588   3.876607   4.168133   5.544887   6.456560
    22  H    3.905099   5.743232   5.812148   7.130611   8.183786
    23  H    3.420394   6.200266   6.225613   7.371523   8.337025
    24  H    2.160331   5.095060   5.232789   6.149331   6.842390
    25  H    1.097756   2.845961   3.345490   4.243227   4.666200
    26  H    3.333433   2.170554   1.097784   2.173051   3.424709
    27  H    5.228096   3.405135   2.160389   1.097806   2.169651
    28  H    6.237093   3.880620   3.419223   2.167681   1.097767
    29  H    5.842747   3.407610   3.903521   3.420378   2.169292
    30  H    4.218083   2.173154   3.432493   3.900425   3.421033
                   16         17         18         19         20
    16  C    0.000000
    17  C    1.398362   0.000000
    18  H    7.255086   5.867918   0.000000
    19  H    7.584112   6.246136   1.753715   0.000000
    20  H    4.720551   3.712091   4.368375   3.689686   0.000000
    21  H    6.267051   5.093117   2.964375   4.155244   4.796953
    22  H    8.127047   7.001621   4.093533   5.690420   7.168229
    23  H    8.310034   7.311947   5.484722   7.227520   8.439864
    24  H    6.731961   5.901220   5.944748   7.540295   7.914762
    25  H    4.320539   3.433429   5.211748   6.440090   5.845761
    26  H    3.903496   3.430253   5.990195   6.912088   5.448639
    27  H    3.419638   3.900017   8.269754   8.990851   6.700132
    28  H    2.166432   3.418149   9.047958   9.476797   6.548350
    29  H    1.097810   2.162753   7.924871   8.107577   5.070545
    30  H    2.170860   1.098463   5.508994   5.726796   3.263041
                   21         22         23         24         25
    21  H    0.000000
    22  H    2.499489   0.000000
    23  H    4.328970   2.499125   0.000000
    24  H    4.997350   4.327800   2.498896   0.000000
    25  H    4.333480   5.002806   4.331922   2.499448   0.000000
    26  H    3.609709   5.037476   5.579789   4.960876   3.538278
    27  H    6.075133   7.471972   7.677491   6.576224   4.970871
    28  H    7.514012   9.199768   9.274251   7.700737   5.605879
    29  H    7.220408   9.106764   9.226503   7.519447   5.081894
    30  H    5.323263   7.244711   7.561022   6.137820   3.670829
                   26         27         28         29         30
    26  H    0.000000
    27  H    2.498318   0.000000
    28  H    4.330417   2.499228   0.000000
    29  H    5.001274   4.328215   2.499177   0.000000
    30  H    4.335265   4.998197   4.326839   2.495231   0.000000
 Stoichiometry    C15H13N2(1+)
 Framework group  C1[X(C15H13N2)]
 Deg. of freedom    84
 Full point group                 C1      NOp   1
 RotChk:  IX=0 Diff= 1.21D-15
 Largest Abelian subgroup         C1      NOp   1
 Largest concise Abelian subgroup C1      NOp   1
                         Standard orientation:                         
 ---------------------------------------------------------------------
 Center     Atomic      Atomic             Coordinates (Angstroms)
 Number     Number       Type             X           Y           Z
 ---------------------------------------------------------------------
      1          7           0       -2.519752    3.020298    0.107294
      2          6           0       -1.246030    2.711008    0.007759
      3          6           0        0.077300    3.051229   -0.131739
      4          6           0       -0.252090    1.712085   -0.047322
      5          7           0        0.056953    0.433770   -0.021433
      6          6           0       -1.004734   -0.549494    0.038879
      7          6           0       -2.072259   -0.471928   -0.863862
      8          6           0       -3.109100   -1.407910   -0.779653
      9          6           0       -3.065084   -2.418333    0.186056
     10          6           0       -1.982448   -2.496264    1.070002
     11          6           0       -0.946615   -1.561202    1.003719
     12          6           0        1.444051    0.014822   -0.056527
     13          6           0        1.830552   -0.978230   -0.963483
     14          6           0        3.168758   -1.376510   -1.003088
     15          6           0        4.107812   -0.785095   -0.150235
     16          6           0        3.708105    0.203537    0.754186
     17          6           0        2.369620    0.604384    0.810702
     18          1           0       -3.220616    2.288308    0.222379
     19          1           0       -2.828150    3.992470    0.090787
     20          1           0        0.843701    3.824287   -0.230168
     21          1           0       -2.078219    0.295297   -1.651216
     22          1           0       -3.945206   -1.358704   -1.489720
     23          1           0       -3.874893   -3.157207    0.244083
     24          1           0       -1.944487   -3.292252    1.825150
     25          1           0       -0.096521   -1.614263    1.696246
     26          1           0        1.089668   -1.435062   -1.632456
     27          1           0        3.480987   -2.153931   -1.712530
     28          1           0        5.158333   -1.101465   -0.187746
     29          1           0        4.440228    0.660409    1.432750
     30          1           0        2.047740    1.361038    1.539049
 ---------------------------------------------------------------------
 Rotational constants (GHZ):           0.6390557           0.3873983           0.2673943
 Leave Link  202 at Wed May 11 06:11:58 2022, MaxMem=  6442450944 cpu:               0.1 elap:               0.0
 (Enter /mnt/gpfs3_amd/share/apps/amd/gaussian/g16-A.03/g16/l301.exe)
 Standard basis: def2SVP (5D, 7F)
 Ernie: Thresh=  0.10000D-02 Tol=  0.10000D-05 Strict=F.
 There are   320 symmetry adapted cartesian basis functions of A   symmetry.
 There are   303 symmetry adapted basis functions of A   symmetry.
   303 basis functions,   516 primitive gaussians,   320 cartesian basis functions
    58 alpha electrons       58 beta electrons
       nuclear repulsion energy      1081.9857366231 Hartrees.
 IExCor=33909 DFT=T Ex+Corr=LC-wHPBE ExCW=0 ScaHFX=  1.000000
 ScaDFX=  1.000000  1.000000  1.000000  1.000000 ScalE2=  1.000000  1.000000
 IRadAn=      5 IRanWt=     -1 IRanGd=            0 ICorTp=0 IEmpDi=  4
 HFx  wShort=  0.000000 wLong=  0.225700 cFull=  0.000000 cShort=  0.000000 cLong=  1.000000
 DFx  wShort=  0.000000 wLong=  0.225700 cFull=  0.000000 cShort=  1.000000 cLong=  0.000000
 NAtoms=   30 NActive=   30 NUniq=   30 SFac= 1.00D+00 NAtFMM=   60 NAOKFM=F Big=F
 Integral buffers will be    131072 words long.
 Raffenetti 2 integral format.
 Two-electron integral symmetry is turned on.
 Leave Link  301 at Wed May 11 06:11:58 2022, MaxMem=  6442450944 cpu:               0.3 elap:               0.0
 (Enter /mnt/gpfs3_amd/share/apps/amd/gaussian/g16-A.03/g16/l302.exe)
 NPDir=0 NMtPBC=     1 NCelOv=     1 NCel=       1 NClECP=     1 NCelD=      1
         NCelK=      1 NCelE2=     1 NClLst=     1 CellRange=     0.0.
 One-electron integrals computed using PRISM.
 One-electron integral symmetry used in STVInt
   1 Symmetry operations used in ECPInt.
 ECPInt:  NShTT=   10011 NPrTT=   36575 LenC2=    9405 LenP2D=   24548.
 LDataN:  DoStor=T MaxTD1= 4 Len=   56
 NBasis=   303 RedAO= T EigKep=  2.62D-04  NBF=   303
 NBsUse=   303 1.00D-06 EigRej= -1.00D+00 NBFU=   303
 Precomputing XC quadrature grid using
 IXCGrd= 4 IRadAn=           5 IRanWt=          -1 IRanGd=           0 AccXCQ= 0.00D+00.
 Generated NRdTot=       0 NPtTot=           0 NUsed=           0 NTot=          32
 NSgBfM=   319   319   319   319   319 MxSgAt=    30 MxSgA2=    30.
 Leave Link  302 at Wed May 11 06:11:59 2022, MaxMem=  6442450944 cpu:              12.2 elap:               0.8
 (Enter /mnt/gpfs3_amd/share/apps/amd/gaussian/g16-A.03/g16/l303.exe)
 DipDrv:  MaxL=1.
 Leave Link  303 at Wed May 11 06:11:59 2022, MaxMem=  6442450944 cpu:               0.8 elap:               0.1
 (Enter /mnt/gpfs3_amd/share/apps/amd/gaussian/g16-A.03/g16/l401.exe)
 Initial guess from the checkpoint file:  "/scratch/rdu230/d3tales/high_throughput/runfiles//06IVBN/gaussian/gas_phase/opt/freq_opt_groundState.chk"
 B after Tr=    -0.000000   -0.000000    0.000000
         Rot=    1.000000   -0.000000   -0.000000    0.000000 Ang=   0.00 deg.
 Guess basis will be translated and rotated to current coordinates.
 JPrj=2 DoOrth=T DoCkMO=T.
 Leave Link  401 at Wed May 11 06:12:00 2022, MaxMem=  6442450944 cpu:               7.4 elap:               0.5
 (Enter /mnt/gpfs3_amd/share/apps/amd/gaussian/g16-A.03/g16/l502.exe)
 Integral symmetry usage will be decided dynamically.
 Closed shell SCF:
 Using DIIS extrapolation, IDIIS=  1040.
 NGot=  6442450944 LenX=  6442237618 LenY=  6442134777
 Requested convergence on RMS density matrix=1.00D-08 within 128 cycles.
 Requested convergence on MAX density matrix=1.00D-06.
 Requested convergence on             energy=1.00D-06.
 No special actions if energy rises.
 Fock matrices will be formed incrementally for  20 cycles.

 Cycle   1  Pass 1  IDiag  1:
 FoFJK:  IHMeth= 1 ICntrl=       0 DoSepK=T KAlg= 0 I1Cent=           0 FoldK=F
 IRaf=         1 NMat=       1 IRICut=       1 DoRegI=T DoRafI=F ISym2E= 0 IDoP0=0 IntGTp=1.
 FoFCou: FMM=F IPFlag=           0 FMFlag=      100000 FMFlg1=           0
         NFxFlg=           0 DoJE=T BraDBF=F KetDBF=F FulRan=T
         wScrn=  0.000000 ICntrl=       500 IOpCl=  0 I1Cent=           0 NGrid=           0
         NMat0=    1 NMatS0=      1 NMatT0=    0 NMatD0=    1 NMtDS0=    0 NMtDT0=    0
 Symmetry not used in FoFCou.
 E= -687.548902980801    
 DIIS: error= 2.22D-08 at cycle   1 NSaved=   1.
 NSaved= 1 IEnMin= 1 EnMin= -687.548902980801     IErMin= 1 ErrMin= 2.22D-08
 ErrMax= 2.22D-08  0.00D+00 EMaxC= 1.00D-01 BMatC= 2.06D-13 BMatP= 2.06D-13
 IDIUse=1 WtCom= 1.00D+00 WtEn= 0.00D+00
 Coeff-Com:  0.100D+01
 Coeff:      0.100D+01
 Gap=     0.318 Goal=   None    Shift=    0.000
 RMSDP=4.09D-09 MaxDP=1.28D-07              OVMax= 2.42D-07

 SCF Done:  E(RLC-wHPBE) =  -687.548902981     A.U. after    1 cycles
            NFock=  1  Conv=0.41D-08     -V/T= 2.0117
 KE= 6.795808204818D+02 PE=-3.739466380368D+03 EE= 1.290350920282D+03
 Leave Link  502 at Wed May 11 06:12:07 2022, MaxMem=  6442450944 cpu:             114.0 elap:               7.3
 (Enter /mnt/gpfs3_amd/share/apps/amd/gaussian/g16-A.03/g16/l801.exe)
 DoSCS=F DFT=T ScalE2(SS,OS)=  1.000000  1.000000
 Range of M.O.s used for correlation:     1   303
 NBasis=   303 NAE=    58 NBE=    58 NFC=     0 NFV=     0
 NROrb=    303 NOA=    58 NOB=    58 NVA=   245 NVB=   245

 **** Warning!!: The largest alpha MO coefficient is  0.13272882D+02

 Leave Link  801 at Wed May 11 06:12:07 2022, MaxMem=  6442450944 cpu:               0.1 elap:               0.0
 (Enter /mnt/gpfs3_amd/share/apps/amd/gaussian/g16-A.03/g16/l1101.exe)
 Using compressed storage, NAtomX=    30.
 Will process     31 centers per pass.
   1 Symmetry operations used in ECPInt.
 ECPInt:  NShTT=   10011 NPrTT=   36575 LenC2=    9405 LenP2D=   24548.
 LDataN:  DoStor=T MaxTD1= 5 Len=  102
 Leave Link 1101 at Wed May 11 06:12:07 2022, MaxMem=  6442450944 cpu:               8.6 elap:               0.6
 (Enter /mnt/gpfs3_amd/share/apps/amd/gaussian/g16-A.03/g16/l1102.exe)
 Symmetrizing basis deriv contribution to polar:
 IMax=3 JMax=2 DiffMx= 0.00D+00
 Leave Link 1102 at Wed May 11 06:12:08 2022, MaxMem=  6442450944 cpu:               0.6 elap:               0.1
 (Enter /mnt/gpfs3_amd/share/apps/amd/gaussian/g16-A.03/g16/l1110.exe)
 Forming Gx(P) for the SCF density, NAtomX=    30.
 Integral derivatives from FoFJK, PRISM(SPDF).
 Do as many integral derivatives as possible in FoFJK.
 G2DrvN: MDV=    6442448708.
 G2DrvN: will do    31 centers at a time, making    1 passes.
 Calling FoFCou, ICntrl=  3107 FMM=F I1Cent=   0 AccDes= 0.00D+00.
 FoFJK:  IHMeth= 1 ICntrl=    3107 DoSepK=T KAlg= 0 I1Cent=           0 FoldK=F
 IRaf=         1 NMat=       1 IRICut=       1 DoRegI=T DoRafI=F ISym2E= 0 IDoP0=0 IntGTp=1.
 FoFCou: FMM=F IPFlag=           0 FMFlag=      100000 FMFlg1=           0
         NFxFlg=           0 DoJE=F BraDBF=F KetDBF=F FulRan=T
         wScrn=  0.000000 ICntrl=      3507 IOpCl=  0 I1Cent=           0 NGrid=           0
         NMat0=    1 NMatS0=      1 NMatT0=    0 NMatD0=    1 NMtDS0=    0 NMtDT0=    0
 Symmetry not used in FoFCou.
 End of G2Drv F.D. properties file   721 does not exist.
 End of G2Drv F.D. properties file   722 does not exist.
 End of G2Drv F.D. properties file   788 does not exist.
 Leave Link 1110 at Wed May 11 06:15:32 2022, MaxMem=  6442450944 cpu:            3245.0 elap:             204.4
 (Enter /mnt/gpfs3_amd/share/apps/amd/gaussian/g16-A.03/g16/l1002.exe)
 Minotr:  Closed shell wavefunction.
          IDoAtm=111111111111111111111111111111
          Direct CPHF calculation.
          Differentiating once with respect to electric field.
                with respect to dipole field.
          Differentiating once with respect to nuclear coordinates.
          Requested convergence is 1.0D-08 RMS, and 1.0D-07 maximum.
          Secondary convergence is 1.0D-12 RMS, and 1.0D-12 maximum.
          NewPWx=T KeepS1=F KeepF1=F KeepIn=T MapXYZ=F SortEE=F KeepMc=T.
         9039 words used for storage of precomputed grid.
 Keep R1 ints in memory in canonical form, NReq=2139650006.
 FoFCou: FMM=F IPFlag=           0 FMFlag=           0 FMFlg1=           0
         NFxFlg=           0 DoJE=F BraDBF=F KetDBF=F FulRan=T
         wScrn=  0.000000 ICntrl=       600 IOpCl=  0 I1Cent=           0 NGrid=           0
         NMat0=    1 NMatS0=  46056 NMatT0=    0 NMatD0=    1 NMtDS0=    0 NMtDT0=    0
 Symmetry not used in FoFCou.
 Two-electron integral symmetry not used.
          MDV=    6442450944 using IRadAn=       1.
          Solving linear equations simultaneously, MaxMat=       0.
          There are    93 degrees of freedom in the 1st order CPHF.  IDoFFX=6 NUNeed=     3.
     90 vectors produced by pass  0 Test12= 1.53D-14 1.08D-09 XBig12= 1.11D+02 3.86D+00.
 AX will form    90 AO Fock derivatives at one time.
     90 vectors produced by pass  1 Test12= 1.53D-14 1.08D-09 XBig12= 1.19D+01 6.41D-01.
     90 vectors produced by pass  2 Test12= 1.53D-14 1.08D-09 XBig12= 2.45D-01 9.11D-02.
     90 vectors produced by pass  3 Test12= 1.53D-14 1.08D-09 XBig12= 4.23D-03 1.02D-02.
     90 vectors produced by pass  4 Test12= 1.53D-14 1.08D-09 XBig12= 3.04D-05 6.77D-04.
     90 vectors produced by pass  5 Test12= 1.53D-14 1.08D-09 XBig12= 1.79D-07 5.07D-05.
     80 vectors produced by pass  6 Test12= 1.53D-14 1.08D-09 XBig12= 9.89D-10 3.06D-06.
     40 vectors produced by pass  7 Test12= 1.53D-14 1.08D-09 XBig12= 4.81D-12 2.06D-07.
      3 vectors produced by pass  8 Test12= 1.53D-14 1.08D-09 XBig12= 2.18D-14 1.33D-08.
      1 vectors produced by pass  9 Test12= 1.53D-14 1.08D-09 XBig12= 9.52D-17 1.09D-09.
 InvSVY:  IOpt=1 It=  1 EMax= 5.33D-15
 Solved reduced A of dimension   664 with    93 vectors.
 FullF1:  Do perturbations      1 to       3.
 Isotropic polarizability for W=    0.000000      165.65 Bohr**3.
 End of Minotr F.D. properties file   721 does not exist.
 End of Minotr F.D. properties file   722 does not exist.
 End of Minotr F.D. properties file   788 does not exist.
 Leave Link 1002 at Wed May 11 06:20:09 2022, MaxMem=  6442450944 cpu:            4364.4 elap:             276.8
 (Enter /mnt/gpfs3_amd/share/apps/amd/gaussian/g16-A.03/g16/l601.exe)
 Copying SCF densities to generalized density rwf, IOpCl= 0 IROHF=0.

 **********************************************************************

            Population analysis using the SCF density.

 **********************************************************************

 Orbital symmetries:
       Occupied  (A) (A) (A) (A) (A) (A) (A) (A) (A) (A) (A) (A)
                 (A) (A) (A) (A) (A) (A) (A) (A) (A) (A) (A) (A)
                 (A) (A) (A) (A) (A) (A) (A) (A) (A) (A) (A) (A)
                 (A) (A) (A) (A) (A) (A) (A) (A) (A) (A) (A) (A)
                 (A) (A) (A) (A) (A) (A) (A) (A) (A) (A)
       Virtual   (A) (A) (A) (A) (A) (A) (A) (A) (A) (A) (A) (A)
                 (A) (A) (A) (A) (A) (A) (A) (A) (A) (A) (A) (A)
                 (A) (A) (A) (A) (A) (A) (A) (A) (A) (A) (A) (A)
                 (A) (A) (A) (A) (A) (A) (A) (A) (A) (A) (A) (A)
                 (A) (A) (A) (A) (A) (A) (A) (A) (A) (A) (A) (A)
                 (A) (A) (A) (A) (A) (A) (A) (A) (A) (A) (A) (A)
                 (A) (A) (A) (A) (A) (A) (A) (A) (A) (A) (A) (A)
                 (A) (A) (A) (A) (A) (A) (A) (A) (A) (A) (A) (A)
                 (A) (A) (A) (A) (A) (A) (A) (A) (A) (A) (A) (A)
                 (A) (A) (A) (A) (A) (A) (A) (A) (A) (A) (A) (A)
                 (A) (A) (A) (A) (A) (A) (A) (A) (A) (A) (A) (A)
                 (A) (A) (A) (A) (A) (A) (A) (A) (A) (A) (A) (A)
                 (A) (A) (A) (A) (A) (A) (A) (A) (A) (A) (A) (A)
                 (A) (A) (A) (A) (A) (A) (A) (A) (A) (A) (A) (A)
                 (A) (A) (A) (A) (A) (A) (A) (A) (A) (A) (A) (A)
                 (A) (A) (A) (A) (A) (A) (A) (A) (A) (A) (A) (A)
                 (A) (A) (A) (A) (A) (A) (A) (A) (A) (A) (A) (A)
                 (A) (A) (A) (A) (A) (A) (A) (A) (A) (A) (A) (A)
                 (A) (A) (A) (A) (A) (A) (A) (A) (A) (A) (A) (A)
                 (A) (A) (A) (A) (A) (A) (A) (A) (A) (A) (A) (A)
                 (A) (A) (A) (A) (A)
 The electronic state is 1-A.
 Alpha  occ. eigenvalues --  -14.34501 -14.33987 -10.28803 -10.28120 -10.23796
 Alpha  occ. eigenvalues --  -10.20742 -10.20085 -10.16625 -10.16003 -10.15771
 Alpha  occ. eigenvalues --  -10.15666 -10.15409 -10.15350 -10.15093 -10.14787
 Alpha  occ. eigenvalues --  -10.14645 -10.14360  -1.20082  -1.16445  -1.11322
 Alpha  occ. eigenvalues --   -1.03543  -1.02124  -0.93951  -0.93314  -0.92298
 Alpha  occ. eigenvalues --   -0.91681  -0.84409  -0.84076  -0.81707  -0.80196
 Alpha  occ. eigenvalues --   -0.79377  -0.78235  -0.77154  -0.74755  -0.73439
 Alpha  occ. eigenvalues --   -0.69570  -0.68521  -0.67249  -0.65430  -0.64594
 Alpha  occ. eigenvalues --   -0.63705  -0.62417  -0.62203  -0.61542  -0.60894
 Alpha  occ. eigenvalues --   -0.59592  -0.58672  -0.57980  -0.56274  -0.54966
 Alpha  occ. eigenvalues --   -0.54087  -0.53559  -0.53175  -0.50019  -0.46455
 Alpha  occ. eigenvalues --   -0.45901  -0.45012  -0.42881
 Alpha virt. eigenvalues --   -0.11108  -0.08916  -0.08097  -0.07800  -0.06511
 Alpha virt. eigenvalues --   -0.04115  -0.02954   0.00357   0.01884   0.01976
 Alpha virt. eigenvalues --    0.03206   0.05260   0.05364   0.06616   0.07091
 Alpha virt. eigenvalues --    0.07851   0.08234   0.08511   0.10253   0.10398
 Alpha virt. eigenvalues --    0.11228   0.11862   0.12318   0.12860   0.15260
 Alpha virt. eigenvalues --    0.17911   0.20276   0.20954   0.22519   0.23282
 Alpha virt. eigenvalues --    0.23431   0.23995   0.25384   0.26187   0.27919
 Alpha virt. eigenvalues --    0.29299   0.29869   0.30621   0.33659   0.34129
 Alpha virt. eigenvalues --    0.34793   0.35813   0.36218   0.37031   0.37449
 Alpha virt. eigenvalues --    0.37882   0.39566   0.39820   0.41211   0.41550
 Alpha virt. eigenvalues --    0.42391   0.43315   0.43459   0.44016   0.44623
 Alpha virt. eigenvalues --    0.45040   0.45471   0.46678   0.49498   0.49649
 Alpha virt. eigenvalues --    0.50017   0.50535   0.51762   0.52487   0.52615
 Alpha virt. eigenvalues --    0.54446   0.55316   0.56214   0.56972   0.57330
 Alpha virt. eigenvalues --    0.57697   0.58747   0.59147   0.60079   0.60731
 Alpha virt. eigenvalues --    0.61287   0.61519   0.62318   0.63339   0.64090
 Alpha virt. eigenvalues --    0.64328   0.64865   0.66047   0.66992   0.67525
 Alpha virt. eigenvalues --    0.67979   0.68108   0.69128   0.70063   0.70459
 Alpha virt. eigenvalues --    0.71424   0.72287   0.72988   0.74164   0.75630
 Alpha virt. eigenvalues --    0.76016   0.76748   0.79016   0.80237   0.83244
 Alpha virt. eigenvalues --    0.84346   0.86368   0.86888   0.88342   0.92918
 Alpha virt. eigenvalues --    0.96049   0.98930   1.00683   1.01083   1.01693
 Alpha virt. eigenvalues --    1.03157   1.04221   1.09707   1.10934   1.12118
 Alpha virt. eigenvalues --    1.12561   1.14790   1.16366   1.16896   1.17200
 Alpha virt. eigenvalues --    1.17886   1.19122   1.19707   1.20415   1.21542
 Alpha virt. eigenvalues --    1.23255   1.23595   1.23838   1.25834   1.26847
 Alpha virt. eigenvalues --    1.28899   1.29766   1.40407   1.43205   1.44888
 Alpha virt. eigenvalues --    1.47711   1.51869   1.53172   1.54416   1.58456
 Alpha virt. eigenvalues --    1.59371   1.59664   1.60065   1.60600   1.61795
 Alpha virt. eigenvalues --    1.63895   1.64334   1.65426   1.66891   1.67261
 Alpha virt. eigenvalues --    1.67591   1.67757   1.68444   1.68830   1.69676
 Alpha virt. eigenvalues --    1.70254   1.70838   1.71397   1.73302   1.74104
 Alpha virt. eigenvalues --    1.75291   1.75913   1.77095   1.78021   1.78810
 Alpha virt. eigenvalues --    1.80427   1.84832   1.87160   1.87750   1.89457
 Alpha virt. eigenvalues --    1.89905   1.90453   1.90617   1.90905   1.91557
 Alpha virt. eigenvalues --    1.91841   1.92809   1.94846   1.96114   1.97048
 Alpha virt. eigenvalues --    1.98758   2.01638   2.02923   2.06069   2.06741
 Alpha virt. eigenvalues --    2.07484   2.08037   2.08547   2.09240   2.10438
 Alpha virt. eigenvalues --    2.12536   2.14152   2.18177   2.19807   2.20653
 Alpha virt. eigenvalues --    2.21477   2.21768   2.21967   2.23386   2.23643
 Alpha virt. eigenvalues --    2.24134   2.25895   2.26657   2.27740   2.32023
 Alpha virt. eigenvalues --    2.34313   2.37473   2.43819   2.45469   2.46562
 Alpha virt. eigenvalues --    2.49312   2.51144   2.52126   2.53027   2.53864
 Alpha virt. eigenvalues --    2.54915   2.55739   2.61421   2.63185   2.64056
 Alpha virt. eigenvalues --    2.64261   2.64784   2.68659   2.70244   2.71389
 Alpha virt. eigenvalues --    2.76112   2.77017   2.77607   2.78573   2.79109
 Alpha virt. eigenvalues --    2.80965   2.87311   2.92713   2.99697   3.01913
 Alpha virt. eigenvalues --    3.02467   3.03410   3.09021   3.13249   3.18101
 Alpha virt. eigenvalues --    3.27466   3.33218   3.45817   3.53400   3.56764
          Condensed to atoms (all electrons):
               1          2          3          4          5          6
     1  N    5.829514   0.502263  -0.048981  -0.040794   0.000146  -0.000745
     2  C    0.502263   4.875669   0.314088   0.329091  -0.039944  -0.012710
     3  C   -0.048981   0.314088   5.317183   0.170712  -0.053283   0.004960
     4  C   -0.040794   0.329091   0.170712   5.014449   0.477919  -0.054576
     5  N    0.000146  -0.039944  -0.053283   0.477919   6.559997   0.242362
     6  C   -0.000745  -0.012710   0.004960  -0.054576   0.242362   5.342607
     7  C   -0.001445  -0.002623   0.001584  -0.006481  -0.067070   0.209239
     8  C   -0.000009  -0.000166  -0.000026  -0.000003   0.007705   0.124733
     9  C    0.000000  -0.000012   0.000002   0.000105  -0.000253  -0.168081
    10  C    0.000006   0.000015  -0.000002   0.000016   0.008317   0.138499
    11  C   -0.000060   0.000625  -0.000266   0.002722  -0.067118   0.251543
    12  C   -0.000100   0.003074  -0.004143  -0.053103   0.229456  -0.037581
    13  C   -0.000000  -0.000523   0.000587   0.001988  -0.065721   0.002796
    14  C    0.000000   0.000009  -0.000008   0.000076   0.008090  -0.001326
    15  C    0.000000   0.000002  -0.000008   0.000137  -0.000236   0.000096
    16  C    0.000000   0.000020  -0.000133  -0.000002   0.007275  -0.000245
    17  C   -0.000001   0.000998  -0.000299  -0.006279  -0.066882   0.002920
    18  H    0.379148  -0.013412   0.008297  -0.020542   0.000390   0.000505
    19  H    0.361458  -0.006294  -0.011605   0.011890  -0.000055  -0.000018
    20  H   -0.001293  -0.057090   0.472617  -0.052573  -0.001280  -0.000109
    21  H    0.000986   0.000125  -0.000450   0.003058  -0.009710  -0.082420
    22  H   -0.000008   0.000012  -0.000001  -0.000026  -0.000139   0.015023
    23  H    0.000000  -0.000000  -0.000000  -0.000000   0.000008  -0.001802
    24  H   -0.000000   0.000001  -0.000000  -0.000002  -0.000127   0.014290
    25  H   -0.000000  -0.000087  -0.000040  -0.000570  -0.012790  -0.067713
    26  H   -0.000000  -0.000060  -0.000064  -0.000766  -0.013012   0.008980
    27  H   -0.000000  -0.000000   0.000000  -0.000004  -0.000129  -0.000017
    28  H    0.000000   0.000000  -0.000000  -0.000000   0.000009   0.000000
    29  H   -0.000000  -0.000002   0.000014  -0.000037  -0.000133   0.000007
    30  H   -0.000004  -0.000416   0.000542   0.004394  -0.012490  -0.000436
               7          8          9         10         11         12
     1  N   -0.001445  -0.000009   0.000000   0.000006  -0.000060  -0.000100
     2  C   -0.002623  -0.000166  -0.000012   0.000015   0.000625   0.003074
     3  C    0.001584  -0.000026   0.000002  -0.000002  -0.000266  -0.004143
     4  C   -0.006481  -0.000003   0.000105   0.000016   0.002722  -0.053103
     5  N   -0.067070   0.007705  -0.000253   0.008317  -0.067118   0.229456
     6  C    0.209239   0.124733  -0.168081   0.138499   0.251543  -0.037581
     7  C    5.230526   0.258224   0.094028  -0.156774   0.073398   0.002751
     8  C    0.258224   5.044638   0.274792   0.111017  -0.144251  -0.000301
     9  C    0.094028   0.274792   5.063301   0.264191   0.093716   0.000091
    10  C   -0.156774   0.111017   0.264191   5.056389   0.256428  -0.001242
    11  C    0.073398  -0.144251   0.093716   0.256428   5.097683   0.002742
    12  C    0.002751  -0.000301   0.000091  -0.001242   0.002742   5.320398
    13  C   -0.000643   0.000070  -0.000027  -0.000217  -0.005115   0.253813
    14  C    0.000059   0.000003   0.000002  -0.000008  -0.000159   0.132511
    15  C   -0.000007   0.000000  -0.000000   0.000002  -0.000032  -0.167226
    16  C    0.000012  -0.000000   0.000000   0.000003   0.000061   0.126706
    17  C   -0.000849   0.000012  -0.000006   0.000053  -0.000561   0.227228
    18  H    0.004391   0.000660   0.000007  -0.000028  -0.000080  -0.000018
    19  H   -0.000023   0.000000  -0.000000  -0.000000   0.000001   0.000009
    20  H   -0.000017  -0.000000  -0.000000  -0.000000   0.000003   0.000720
    21  H    0.447385  -0.055628   0.013408  -0.002255   0.013819  -0.000478
    22  H   -0.066066   0.443690  -0.063228   0.012592  -0.001471   0.000008
    23  H    0.014015  -0.066493   0.448281  -0.065050   0.013708   0.000000
    24  H   -0.001384   0.012616  -0.064638   0.443826  -0.062470  -0.000018
    25  H    0.014678  -0.002370   0.013331  -0.062376   0.449233   0.008354
    26  H   -0.001342   0.000184  -0.000004  -0.000275  -0.000996  -0.068524
    27  H    0.000002  -0.000000   0.000000  -0.000001   0.000014   0.014480
    28  H    0.000000   0.000000  -0.000000   0.000000  -0.000000  -0.001704
    29  H    0.000000   0.000000   0.000000  -0.000000  -0.000002   0.014801
    30  H   -0.000011   0.000000   0.000000  -0.000002   0.000091  -0.078923
              13         14         15         16         17         18
     1  N   -0.000000   0.000000   0.000000   0.000000  -0.000001   0.379148
     2  C   -0.000523   0.000009   0.000002   0.000020   0.000998  -0.013412
     3  C    0.000587  -0.000008  -0.000008  -0.000133  -0.000299   0.008297
     4  C    0.001988   0.000076   0.000137  -0.000002  -0.006279  -0.020542
     5  N   -0.065721   0.008090  -0.000236   0.007275  -0.066882   0.000390
     6  C    0.002796  -0.001326   0.000096  -0.000245   0.002920   0.000505
     7  C   -0.000643   0.000059  -0.000007   0.000012  -0.000849   0.004391
     8  C    0.000070   0.000003   0.000000  -0.000000   0.000012   0.000660
     9  C   -0.000027   0.000002  -0.000000   0.000000  -0.000006   0.000007
    10  C   -0.000217  -0.000008   0.000002   0.000003   0.000053  -0.000028
    11  C   -0.005115  -0.000159  -0.000032   0.000061  -0.000561  -0.000080
    12  C    0.253813   0.132511  -0.167226   0.126706   0.227228  -0.000018
    13  C    5.100186   0.265817   0.091761  -0.144549   0.069433   0.000000
    14  C    0.265817   5.044852   0.269722   0.107981  -0.150724  -0.000000
    15  C    0.091761   0.269722   5.060542   0.276901   0.091657   0.000000
    16  C   -0.144549   0.107981   0.276901   5.021357   0.277150  -0.000000
    17  C    0.069433  -0.150724   0.091657   0.277150   5.163156   0.000001
    18  H    0.000000  -0.000000   0.000000  -0.000000   0.000001   0.482943
    19  H   -0.000000   0.000000  -0.000000   0.000000  -0.000000  -0.025058
    20  H   -0.000008  -0.000001   0.000000   0.000021   0.000523  -0.000103
    21  H    0.000088  -0.000000   0.000000   0.000000  -0.000019   0.000579
    22  H   -0.000003  -0.000000   0.000000   0.000000   0.000000   0.000019
    23  H   -0.000000   0.000000  -0.000000   0.000000  -0.000000  -0.000002
    24  H    0.000014  -0.000001   0.000000  -0.000000   0.000001  -0.000000
    25  H   -0.000937  -0.000278  -0.000005   0.000175  -0.000912  -0.000003
    26  H    0.447162  -0.061353   0.013318  -0.002271   0.014419  -0.000000
    27  H   -0.063212   0.443667  -0.064742   0.012637  -0.001415   0.000000
    28  H    0.013711  -0.065347   0.447389  -0.065892   0.013819  -0.000000
    29  H   -0.001387   0.012522  -0.063772   0.442748  -0.064127  -0.000000
    30  H    0.013941  -0.002183   0.013563  -0.056010   0.446584   0.000001
              19         20         21         22         23         24
     1  N    0.361458  -0.001293   0.000986  -0.000008   0.000000  -0.000000
     2  C   -0.006294  -0.057090   0.000125   0.000012  -0.000000   0.000001
     3  C   -0.011605   0.472617  -0.000450  -0.000001  -0.000000  -0.000000
     4  C    0.011890  -0.052573   0.003058  -0.000026  -0.000000  -0.000002
     5  N   -0.000055  -0.001280  -0.009710  -0.000139   0.000008  -0.000127
     6  C   -0.000018  -0.000109  -0.082420   0.015023  -0.001802   0.014290
     7  C   -0.000023  -0.000017   0.447385  -0.066066   0.014015  -0.001384
     8  C    0.000000  -0.000000  -0.055628   0.443690  -0.066493   0.012616
     9  C   -0.000000  -0.000000   0.013408  -0.063228   0.448281  -0.064638
    10  C   -0.000000  -0.000000  -0.002255   0.012592  -0.065050   0.443826
    11  C    0.000001   0.000003   0.013819  -0.001471   0.013708  -0.062470
    12  C    0.000009   0.000720  -0.000478   0.000008   0.000000  -0.000018
    13  C   -0.000000  -0.000008   0.000088  -0.000003  -0.000000   0.000014
    14  C    0.000000  -0.000001  -0.000000  -0.000000   0.000000  -0.000001
    15  C   -0.000000   0.000000   0.000000   0.000000  -0.000000   0.000000
    16  C    0.000000   0.000021   0.000000   0.000000   0.000000  -0.000000
    17  C   -0.000000   0.000523  -0.000019   0.000000  -0.000000   0.000001
    18  H   -0.025058  -0.000103   0.000579   0.000019  -0.000002  -0.000000
    19  H    0.483514   0.000553  -0.000010   0.000000  -0.000000   0.000000
    20  H    0.000553   0.554629  -0.000002   0.000000  -0.000000  -0.000000
    21  H   -0.000010  -0.000002   0.667998  -0.011819  -0.000181   0.000021
    22  H    0.000000   0.000000  -0.011819   0.644655  -0.011261  -0.000203
    23  H   -0.000000  -0.000000  -0.000181  -0.011261   0.636818  -0.011109
    24  H    0.000000  -0.000000   0.000021  -0.000203  -0.011109   0.636738
    25  H   -0.000000  -0.000000  -0.000134   0.000016  -0.000163  -0.011153
    26  H   -0.000000  -0.000001   0.000112  -0.000001  -0.000000  -0.000001
    27  H   -0.000000  -0.000000  -0.000000  -0.000000   0.000000  -0.000000
    28  H    0.000000   0.000000  -0.000000   0.000000  -0.000000   0.000000
    29  H   -0.000000  -0.000001   0.000000  -0.000000   0.000000  -0.000000
    30  H   -0.000001  -0.000028  -0.000001  -0.000000  -0.000000  -0.000000
              25         26         27         28         29         30
     1  N   -0.000000  -0.000000  -0.000000   0.000000  -0.000000  -0.000004
     2  C   -0.000087  -0.000060  -0.000000   0.000000  -0.000002  -0.000416
     3  C   -0.000040  -0.000064   0.000000  -0.000000   0.000014   0.000542
     4  C   -0.000570  -0.000766  -0.000004  -0.000000  -0.000037   0.004394
     5  N   -0.012790  -0.013012  -0.000129   0.000009  -0.000133  -0.012490
     6  C   -0.067713   0.008980  -0.000017   0.000000   0.000007  -0.000436
     7  C    0.014678  -0.001342   0.000002   0.000000   0.000000  -0.000011
     8  C   -0.002370   0.000184  -0.000000   0.000000   0.000000   0.000000
     9  C    0.013331  -0.000004   0.000000  -0.000000   0.000000   0.000000
    10  C   -0.062376  -0.000275  -0.000001   0.000000  -0.000000  -0.000002
    11  C    0.449233  -0.000996   0.000014  -0.000000  -0.000002   0.000091
    12  C    0.008354  -0.068524   0.014480  -0.001704   0.014801  -0.078923
    13  C   -0.000937   0.447162  -0.063212   0.013711  -0.001387   0.013941
    14  C   -0.000278  -0.061353   0.443667  -0.065347   0.012522  -0.002183
    15  C   -0.000005   0.013318  -0.064742   0.447389  -0.063772   0.013563
    16  C    0.000175  -0.002271   0.012637  -0.065892   0.442748  -0.056010
    17  C   -0.000912   0.014419  -0.001415   0.013819  -0.064127   0.446584
    18  H   -0.000003  -0.000000   0.000000  -0.000000  -0.000000   0.000001
    19  H   -0.000000  -0.000000  -0.000000   0.000000  -0.000000  -0.000001
    20  H   -0.000000  -0.000001  -0.000000   0.000000  -0.000001  -0.000028
    21  H   -0.000134   0.000112  -0.000000  -0.000000   0.000000  -0.000001
    22  H    0.000016  -0.000001  -0.000000   0.000000  -0.000000  -0.000000
    23  H   -0.000163  -0.000000   0.000000  -0.000000   0.000000  -0.000000
    24  H   -0.011153  -0.000001  -0.000000   0.000000  -0.000000  -0.000000
    25  H    0.642370  -0.000017  -0.000001  -0.000000  -0.000001   0.000082
    26  H   -0.000017   0.649208  -0.011374  -0.000171   0.000017  -0.000134
    27  H   -0.000001  -0.011374   0.641026  -0.011201  -0.000204   0.000018
    28  H   -0.000000  -0.000171  -0.011201   0.639397  -0.011253  -0.000186
    29  H   -0.000001   0.000017  -0.000204  -0.011253   0.644942  -0.011892
    30  H    0.000082  -0.000134   0.000018  -0.000186  -0.011892   0.670874
 Mulliken charges:
               1
     1  N    0.019918
     2  C    0.107350
     3  C   -0.171276
     4  C    0.219200
     5  N   -0.131303
     6  C    0.069218
     7  C   -0.045556
     8  C   -0.009098
     9  C    0.030997
    10  C   -0.003122
    11  C    0.026791
    12  C    0.076220
    13  C    0.020974
    14  C   -0.003923
    15  C    0.030938
    16  C   -0.003943
    17  C   -0.015882
    18  H    0.182303
    19  H    0.185637
    20  H    0.083438
    21  H    0.015527
    22  H    0.038212
    23  H    0.043229
    24  H    0.043600
    25  H    0.031311
    26  H    0.026967
    27  H    0.040456
    28  H    0.041428
    29  H    0.037761
    30  H    0.012627
 Sum of Mulliken charges =   1.00000
 Mulliken charges with hydrogens summed into heavy atoms:
               1
     1  N    0.387858
     2  C    0.107350
     3  C   -0.087838
     4  C    0.219200
     5  N   -0.131303
     6  C    0.069218
     7  C   -0.030029
     8  C    0.029114
     9  C    0.074226
    10  C    0.040478
    11  C    0.058102
    12  C    0.076220
    13  C    0.047941
    14  C    0.036533
    15  C    0.072367
    16  C    0.033818
    17  C   -0.003255
 APT charges:
               1
     1  N   -0.652303
     2  C    0.553592
     3  C   -0.407572
     4  C    0.728430
     5  N   -0.707932
     6  C    0.284725
     7  C   -0.101103
     8  C   -0.024991
     9  C   -0.028866
    10  C    0.000487
    11  C   -0.092191
    12  C    0.288690
    13  C   -0.090499
    14  C   -0.011732
    15  C   -0.024591
    16  C   -0.022894
    17  C   -0.091027
    18  H    0.266839
    19  H    0.297877
    20  H    0.184430
    21  H    0.054511
    22  H    0.060969
    23  H    0.069737
    24  H    0.064367
    25  H    0.079407
    26  H    0.075062
    27  H    0.061282
    28  H    0.068012
    29  H    0.060436
    30  H    0.056846
 Sum of APT charges =   1.00000
 APT charges with hydrogens summed into heavy atoms:
               1
     1  N   -0.087587
     2  C    0.553592
     3  C   -0.223141
     4  C    0.728430
     5  N   -0.707932
     6  C    0.284725
     7  C   -0.046592
     8  C    0.035978
     9  C    0.040872
    10  C    0.064855
    11  C   -0.012783
    12  C    0.288690
    13  C   -0.015437
    14  C    0.049550
    15  C    0.043421
    16  C    0.037542
    17  C   -0.034181
 Electronic spatial extent (au):  <R**2>=           4086.7829
 Charge=              1.0000 electrons
 Dipole moment (field-independent basis, Debye):
    X=             -3.6658    Y=              6.1959    Z=              0.2080  Tot=              7.2021
 Quadrupole moment (field-independent basis, Debye-Ang):
   XX=            -54.0213   YY=            -54.6455   ZZ=            -91.9367
   XY=            -10.4402   XZ=              1.7717   YZ=              0.7193
 Traceless Quadrupole moment (field-independent basis, Debye-Ang):
   XX=             12.8465   YY=             12.2223   ZZ=            -25.0688
   XY=            -10.4402   XZ=              1.7717   YZ=              0.7193
 Octapole moment (field-independent basis, Debye-Ang**2):
  XXX=            -18.0838  YYY=            113.1614  ZZZ=              0.7594  XYY=            -67.1360
  XXY=             17.0779  XXZ=             -2.0785  XZZ=             -1.1518  YZZ=             -5.4197
  YYZ=              7.4860  XYZ=             13.0142
 Hexadecapole moment (field-independent basis, Debye-Ang**3):
 XXXX=          -2582.9895 YYYY=          -1323.5150 ZZZZ=           -384.0827 XXXY=           -160.8053
 XXXZ=             57.8191 YYYX=           -152.3143 YYYZ=            -31.2169 ZZZX=              9.2208
 ZZZY=              1.1693 XXYY=           -569.3061 XXZZ=           -586.3929 YYZZ=           -357.7757
 XXYZ=             52.3399 YYXZ=            -44.5092 ZZXY=             -2.5134
 N-N= 1.081985736623D+03 E-N=-3.739466386534D+03  KE= 6.795808204818D+02
  Exact polarizability: 209.115   0.801 175.154  12.335   2.625 112.694
 Approx polarizability: 227.414   4.117 199.363  19.472   4.113 150.217
 No NMR shielding tensors so no spin-rotation constants.
 Leave Link  601 at Wed May 11 06:20:09 2022, MaxMem=  6442450944 cpu:               8.5 elap:               0.6
 (Enter /mnt/gpfs3_amd/share/apps/amd/gaussian/g16-A.03/g16/l701.exe)
 ... and contract with generalized density number  0.
 Compute integral second derivatives.
   1 Symmetry operations used in ECPInt.
 ECPInt:  NShTT=   10011 NPrTT=   36575 LenC2=    9405 LenP2D=   24548.
 LDataN:  DoStor=T MaxTD1= 6 Len=  172
 Leave Link  701 at Wed May 11 06:20:10 2022, MaxMem=  6442450944 cpu:               5.8 elap:               0.4
 (Enter /mnt/gpfs3_amd/share/apps/amd/gaussian/g16-A.03/g16/l702.exe)
 L702 exits ... SP integral derivatives will be done elsewhere.
 Leave Link  702 at Wed May 11 06:20:10 2022, MaxMem=  6442450944 cpu:               0.3 elap:               0.0
 (Enter /mnt/gpfs3_amd/share/apps/amd/gaussian/g16-A.03/g16/l703.exe)
 Integral derivatives from FoFJK, PRISM(SPDF).
 Compute integral second derivatives, UseDBF=F ICtDFT=           0.
 Calling FoFJK, ICntrl=    100127 FMM=F ISym2X=0 I1Cent= 0 IOpClX= 0 NMat=1 NMatS=1 NMatT=0.
 FoFJK:  IHMeth= 1 ICntrl=  100127 DoSepK=T KAlg= 0 I1Cent=           0 FoldK=F
 IRaf=         1 NMat=       1 IRICut=       1 DoRegI=T DoRafI=F ISym2E= 0 IDoP0=0 IntGTp=1.
 FoFCou: FMM=F IPFlag=           0 FMFlag=      100000 FMFlg1=         800
         NFxFlg=           0 DoJE=F BraDBF=F KetDBF=F FulRan=T
         wScrn=  0.000000 ICntrl=    100527 IOpCl=  0 I1Cent=           0 NGrid=           0
         NMat0=    1 NMatS0=      1 NMatT0=    0 NMatD0=    1 NMtDS0=    0 NMtDT0=    0
 Symmetry not used in FoFCou.
 Leave Link  703 at Wed May 11 06:23:37 2022, MaxMem=  6442450944 cpu:            3296.3 elap:             207.6
 (Enter /mnt/gpfs3_amd/share/apps/amd/gaussian/g16-A.03/g16/l716.exe)
 Dipole        =-1.44224451D+00 2.43764907D+00 8.18398947D-02
 Polarizability= 2.09115095D+02 8.00991714D-01 1.75154436D+02
                 1.23351839D+01 2.62502040D+00 1.12694474D+02
 Full mass-weighted force constant matrix:
 Low frequencies ---   -8.5669   -3.6951   -1.6701   -0.0005   -0.0004    0.0005
 Low frequencies ---   28.8622   50.2671   64.1610
 Diagonal vibrational polarizability:
       36.1085619      34.4024262      51.2291601
 Harmonic frequencies (cm**-1), IR intensities (KM/Mole), Raman scattering
 activities (A**4/AMU), depolarization ratios for plane and unpolarized
 incident light, reduced masses (AMU), force constants (mDyne/A),
 and normal coordinates:
                      1                      2                      3
                      A                      A                      A
 Frequencies --     28.8562                50.2659                64.1600
 Red. masses --      3.9224                 3.7646                 4.8525
 Frc consts  --      0.0019                 0.0056                 0.0118
 IR Inten    --      1.0890                 0.1420                 2.0738
  Atom  AN      X      Y      Z        X      Y      Z        X      Y      Z
     1   7     0.03   0.06  -0.08    -0.02  -0.01  -0.02     0.07   0.25  -0.07
     2   6     0.02   0.02  -0.08    -0.01  -0.00   0.01     0.04   0.13  -0.02
     3   6     0.03  -0.01  -0.09    -0.01   0.01   0.04     0.07   0.03  -0.01
     4   6    -0.00  -0.00  -0.06     0.00   0.01   0.03    -0.02   0.06   0.05
     5   7    -0.02  -0.00  -0.03     0.00   0.01   0.03    -0.06   0.05   0.10
     6   6    -0.01  -0.01  -0.00     0.00   0.01   0.02    -0.03   0.02   0.07
     7   6    -0.09   0.03   0.09     0.10  -0.11  -0.10    -0.01  -0.04   0.04
     8   6    -0.08   0.03   0.14     0.11  -0.12  -0.11     0.09  -0.15  -0.04
     9   6     0.01  -0.02   0.08     0.02  -0.00   0.01     0.15  -0.20  -0.10
    10   6     0.09  -0.07  -0.02    -0.08   0.12   0.15     0.12  -0.12  -0.05
    11   6     0.08  -0.06  -0.06    -0.09   0.12   0.15     0.02  -0.01   0.04
    12   6    -0.01   0.00  -0.01     0.00   0.00  -0.00    -0.06   0.03   0.05
    13   6     0.04   0.13  -0.13    -0.00   0.10  -0.11    -0.13   0.00   0.05
    14   6     0.05   0.14  -0.10    -0.01   0.09  -0.14    -0.14  -0.04   0.00
    15   6    -0.01   0.01   0.05    -0.01  -0.02  -0.06    -0.09  -0.05  -0.05
    16   6    -0.07  -0.12   0.17    -0.01  -0.12   0.04    -0.03  -0.02  -0.05
    17   6    -0.07  -0.13   0.14    -0.00  -0.10   0.07    -0.01   0.02   0.00
    18   1     0.01   0.08  -0.05    -0.01  -0.02  -0.06    -0.01   0.33  -0.05
    19   1     0.06   0.07  -0.09    -0.03  -0.02  -0.03     0.16   0.28  -0.13
    20   1     0.05  -0.03  -0.11    -0.02   0.02   0.06     0.13  -0.03  -0.04
    21   1    -0.15   0.07   0.13     0.18  -0.19  -0.18    -0.05  -0.00   0.07
    22   1    -0.14   0.06   0.21     0.19  -0.21  -0.21     0.11  -0.20  -0.07
    23   1     0.02  -0.03   0.11     0.02  -0.01   0.01     0.23  -0.29  -0.18
    24   1     0.16  -0.11  -0.06    -0.16   0.21   0.25     0.17  -0.15  -0.08
    25   1     0.14  -0.10  -0.13    -0.16   0.22   0.25     0.00   0.04   0.07
    26   1     0.09   0.23  -0.24    -0.01   0.18  -0.16    -0.17   0.01   0.09
    27   1     0.09   0.24  -0.19    -0.01   0.17  -0.23    -0.20  -0.06   0.00
    28   1    -0.01   0.01   0.08    -0.01  -0.02  -0.09    -0.10  -0.08  -0.08
    29   1    -0.11  -0.22   0.28    -0.01  -0.20   0.10     0.01  -0.03  -0.09
    30   1    -0.12  -0.23   0.22    -0.00  -0.18   0.15     0.04   0.04   0.00
                      4                      5                      6
                      A                      A                      A
 Frequencies --     68.6649                82.1911               110.4756
 Red. masses --      4.9275                 4.5437                 3.8730
 Frc consts  --      0.0137                 0.0181                 0.0279
 IR Inten    --      1.7369                 2.3121                 0.4410
  Atom  AN      X      Y      Z        X      Y      Z        X      Y      Z
     1   7     0.07   0.04  -0.18     0.14   0.17   0.25     0.02   0.07  -0.17
     2   6     0.07  -0.03  -0.05     0.09   0.03   0.05     0.02   0.02   0.05
     3   6     0.09  -0.10   0.04     0.10  -0.08  -0.10     0.06  -0.00   0.35
     4   6     0.02  -0.08   0.08    -0.00  -0.05  -0.09    -0.01  -0.01   0.06
     5   7    -0.01  -0.09   0.15    -0.04  -0.06  -0.11    -0.02  -0.01  -0.12
     6   6    -0.03  -0.07   0.08    -0.04  -0.06  -0.06    -0.00  -0.03  -0.10
     7   6    -0.01   0.00   0.05    -0.03  -0.11  -0.08    -0.05  -0.07  -0.06
     8   6    -0.05   0.05  -0.00    -0.03  -0.11  -0.04    -0.05  -0.06   0.05
     9   6    -0.12   0.02  -0.03    -0.05  -0.05   0.03    -0.01  -0.00   0.11
    10   6    -0.15  -0.06  -0.01    -0.06   0.01   0.05     0.04   0.03   0.05
    11   6    -0.10  -0.11   0.05    -0.06   0.00   0.01     0.04   0.02  -0.06
    12   6    -0.00  -0.06   0.11    -0.03  -0.03  -0.06    -0.01  -0.00  -0.07
    13   6     0.01  -0.01   0.05     0.06  -0.03  -0.02     0.02  -0.02  -0.04
    14   6     0.05   0.13  -0.08     0.08   0.05   0.04     0.02  -0.02   0.02
    15   6     0.07   0.21  -0.15     0.02   0.12   0.06    -0.00   0.01   0.03
    16   6     0.05   0.13  -0.08    -0.07   0.11   0.03    -0.04   0.03  -0.01
    17   6     0.02  -0.01   0.05    -0.09   0.03  -0.03    -0.04   0.02  -0.06
    18   1     0.02   0.09  -0.20     0.07   0.25   0.33    -0.05   0.09  -0.43
    19   1     0.13   0.06  -0.26     0.24   0.20   0.30     0.07   0.09  -0.05
    20   1     0.14  -0.15   0.04     0.16  -0.14  -0.15     0.10  -0.01   0.60
    21   1     0.05   0.03   0.08    -0.02  -0.15  -0.12    -0.08  -0.10  -0.09
    22   1    -0.03   0.11  -0.02    -0.02  -0.15  -0.05    -0.09  -0.09   0.09
    23   1    -0.16   0.06  -0.08    -0.05  -0.04   0.06    -0.02   0.01   0.20
    24   1    -0.20  -0.09  -0.04    -0.08   0.06   0.11     0.07   0.07   0.09
    25   1    -0.12  -0.17   0.07    -0.07   0.05   0.02     0.07   0.05  -0.10
    26   1     0.00  -0.05   0.09     0.11  -0.08  -0.04     0.04  -0.04  -0.05
    27   1     0.07   0.18  -0.13     0.15   0.05   0.07     0.05  -0.04   0.05
    28   1     0.10   0.32  -0.27     0.04   0.18   0.10    -0.00   0.01   0.07
    29   1     0.06   0.18  -0.13    -0.12   0.16   0.05    -0.06   0.05  -0.00
    30   1     0.00  -0.06   0.10    -0.17   0.02  -0.05    -0.06   0.04  -0.09
                      7                      8                      9
                      A                      A                      A
 Frequencies --    202.1119               240.1337               267.0288
 Red. masses --      4.2576                 4.4089                 4.5270
 Frc consts  --      0.1025                 0.1498                 0.1902
 IR Inten    --      3.5882                 1.6132                 3.3532
  Atom  AN      X      Y      Z        X      Y      Z        X      Y      Z
     1   7    -0.07   0.21  -0.00    -0.02   0.04   0.05    -0.11   0.19   0.00
     2   6    -0.11  -0.00   0.02    -0.03   0.01  -0.03    -0.15  -0.03   0.01
     3   6    -0.11  -0.06  -0.03    -0.03   0.02  -0.03    -0.17   0.02   0.02
     4   6    -0.13  -0.05   0.05    -0.02   0.02  -0.05    -0.08  -0.00  -0.03
     5   7     0.01  -0.02   0.06    -0.00   0.02  -0.01     0.02  -0.00  -0.06
     6   6     0.10  -0.13  -0.02     0.05  -0.02  -0.14    -0.05   0.06   0.01
     7   6     0.13  -0.09  -0.04     0.07  -0.06  -0.15    -0.09   0.08   0.05
     8   6     0.03   0.03  -0.01     0.03  -0.00  -0.01    -0.03   0.01   0.01
     9   6    -0.10   0.09   0.06    -0.00   0.11   0.11     0.05  -0.06  -0.06
    10   6    -0.06  -0.04   0.00     0.09   0.05  -0.00     0.00   0.03   0.00
    11   6     0.06  -0.16  -0.04     0.13  -0.02  -0.15    -0.06   0.10   0.05
    12   6     0.06   0.10  -0.02    -0.04  -0.06   0.16     0.04  -0.09  -0.00
    13   6     0.03   0.11  -0.04    -0.10  -0.10   0.18     0.12  -0.13   0.05
    14   6    -0.00  -0.01  -0.00    -0.09  -0.00   0.00     0.16  -0.05   0.01
    15   6     0.01  -0.11   0.05    -0.02   0.11  -0.15     0.17   0.02  -0.06
    16   6     0.07  -0.03  -0.00    -0.00  -0.03   0.01     0.10  -0.07  -0.00
    17   6     0.10   0.08  -0.05    -0.03  -0.11   0.18     0.06  -0.15   0.03
    18   1    -0.21   0.37   0.06    -0.03   0.05   0.05    -0.27   0.35  -0.01
    19   1     0.12   0.27  -0.09     0.00   0.04   0.07     0.11   0.26   0.02
    20   1    -0.10  -0.09  -0.12    -0.04   0.04   0.03    -0.21   0.07   0.06
    21   1     0.20  -0.10  -0.05     0.07  -0.11  -0.20    -0.14   0.10   0.08
    22   1     0.03   0.10  -0.00    -0.01  -0.03   0.03    -0.04  -0.01   0.02
    23   1    -0.21   0.22   0.14    -0.08   0.21   0.27     0.14  -0.16  -0.14
    24   1    -0.13  -0.03   0.02     0.10   0.09   0.03     0.03   0.03  -0.00
    25   1     0.06  -0.23  -0.05     0.19  -0.01  -0.22    -0.08   0.15   0.07
[...]
 -0.00309981,0.00429752,-0.00033102,0.01150879,0.01103502,-0.00855321,0
 .08909679,0.11717301,-0.19020652,-0.00364952,-0.00101110,0.00522603,0.
 00005227,-0.00002308,0.00001936,0.00004000,-0.00000924,0.00000773,-0.0
 0001983,0.00001277,-0.00000357,0.00001443,0.00000462,0.00001902,0.0000
 0789,-0.00002552,-0.00001425,-0.00003046,0.00001116,-0.00003420,-0.000
 00771,0.00001151,0.00000327,-0.00000397,-0.00000201,0.00000185,-0.0000
 0046,0.00000564,0.00000908,0.00011238,-0.00036715,-0.00025803,0.000521
 02,0.00036915,-0.00054975,0.00048502,-0.00220407,-0.00061381,-0.093120
 71,-0.12891201,0.19308561,-0.00013361,0.00012228,-0.00002517,0.0002507
 9,-0.00010637,0.00004427,0.00001035,0.00016452,0.00002210,-0.00002984,
 -0.00042081,-0.00008191,0.00074406,0.00096555,0.00025154,0.00967522,-0
 .00627966,0.01093081,-0.00074739,-0.00221874,0.00178387,-0.00071348,-0
 .00040231,0.00069532,-0.00472243,-0.00201122,0.00012015,-0.00901999,0.
 01245153,-0.02173187,-0.13511019,0.06003366,-0.11362652,-0.00019870,-0
 .00035908,0.00042750,-0.00018824,0.00022888,0.00026047,0.00012780,-0.0
 0010549,0.00008027,-0.00008187,-0.00004647,-0.00007741,-0.00012819,0.0
 0015136,-0.00004454,-0.00007780,0.00002393,-0.00019753,0.00003106,0.00
 003624,0.00000567,-0.00001003,-0.00000661,0.00000042,-0.00001148,-0.00
 000363,-0.00000017,0.00041695,-0.00043129,0.00055450,0.00001327,0.0001
 3787,0.00000938,-0.00047081,0.00060540,-0.00093510,0.00096699,0.000562
 46,0.00039163,0.13940252,-0.00007694,0.00005433,-0.00008776,0.00021507
 ,-0.00003998,0.00003318,-0.00003941,0.00015852,0.00010245,-0.00065546,
 -0.00082705,0.00002361,0.00190117,-0.00168889,-0.00267920,0.01014315,-
 0.00162001,0.01096553,-0.00289310,0.00253371,0.00378447,-0.00037220,-0
 .00067180,-0.00056120,-0.00192364,0.00495951,0.00264975,-0.00355915,0.
 00618230,-0.00355607,0.05950510,-0.09116166,0.09501749,-0.00016853,0.0
 0054714,0.00009993,-0.00000545,0.00008487,0.00010375,0.00003305,-0.000
 12834,0.00001203,0.00000149,-0.00006643,-0.00003760,-0.00002522,0.0000
 6877,-0.00001031,0.00001295,-0.00003794,0.00000283,0.00002369,0.000027
 56,0.00007005,-0.00000765,-0.00001845,0.00001379,-0.00001709,-0.000009
 67,0.00003707,0.00038962,0.00007794,0.00074636,0.00014637,-0.00056888,
 -0.00036654,-0.00015348,0.00006045,-0.00023166,0.00065913,-0.00261735,
 -0.00219870,-0.06304558,0.08475656,0.00015764,-0.00013604,0.00003228,-
 0.00028934,0.00010979,-0.00002938,0.00002554,-0.00018352,0.00005067,-0
 .00005555,0.00034986,-0.00008902,-0.00054737,-0.00226401,-0.00076623,-
 0.01227174,0.00717647,-0.00929373,0.00227274,0.00407037,0.00038745,0.0
 0053998,-0.00063203,-0.00000087,-0.00012966,0.00278249,0.00306841,0.00
 213364,0.00068547,0.00405963,-0.11330851,0.09412635,-0.20405330,0.0002
 7366,0.00030789,-0.00000984,-0.00012397,-0.00020357,-0.00011928,0.0000
 1596,-0.00015875,0.00007077,-0.00002225,0.00001302,-0.00007082,-0.0000
 1662,0.00008678,0.00004150,0.00018440,-0.00015901,0.00026513,-0.000035
 98,-0.00005702,-0.00002714,0.00001206,0.00000583,-0.00000248,0.0000115
 7,0.00000754,-0.00000041,-0.00055091,0.00054669,-0.00033911,0.00003151
 ,-0.00040353,-0.00027816,0.00013371,-0.00005328,0.00001813,0.00037247,
 -0.00223351,-0.00092407,0.12120928,-0.10383718,0.20816573,-0.00006186,
 0.00001299,-0.00001092,0.00011812,-0.00009309,-0.00005929,-0.00005597,
 0.00002130,0.00005756,0.00013510,-0.00047800,-0.00005168,-0.00153928,-
 0.00047725,0.00214930,0.00031976,0.00052113,0.00017246,-0.00007326,0.0
 0001113,-0.00009504,-0.00008815,0.00000114,-0.00001671,-0.00005472,0.0
 0001948,-0.00003347,0.00005120,-0.00003899,0.00005707,-0.00015367,0.00
 007670,0.00011397,0.00121730,0.00264239,-0.00077261,-0.19418127,-0.002
 97619,-0.14941974,-0.00719033,-0.00274574,-0.01245951,0.00149649,0.004
 57727,-0.00234856,-0.00022375,0.00023765,0.00090272,0.00316482,0.00085
 758,-0.00165915,0.00001839,0.00002233,0.00000345,0.00000166,-0.0000037
 5,-0.00001348,-0.00000311,-0.00001416,0.00000655,0.00003133,-0.0000314
 7,0.00002095,-0.00000927,0.00000504,0.00000215,-0.00000302,-0.00000207
 ,-0.00000027,-0.00000870,-0.00000025,0.00000209,0.00003030,-0.00002510
 ,-0.00001212,0.19873413,-0.00006116,0.00007007,0.00000223,0.00020708,-
 0.00001124,-0.00012656,0.00004055,0.00023279,-0.00000201,-0.00034961,-
 0.00096018,0.00015922,-0.00149461,0.00141824,0.00149758,0.00028134,-0.
 00021067,-0.00036621,0.00008771,-0.00002413,0.00016120,0.00017313,0.00
 003635,0.00002946,-0.00001582,-0.00008207,0.00008818,-0.00017952,-0.00
 003282,-0.00004045,0.00024158,0.00005146,-0.00029307,-0.01694178,0.003
 62630,-0.01613722,-0.00246156,-0.05257228,-0.01199377,0.01664078,0.005
 58891,0.01632368,0.00441246,-0.00214713,-0.00157676,0.00013605,-0.0010
 3907,0.00007837,0.00160024,-0.00279894,-0.00362535,0.00000819,-0.00002
 394,-0.00001078,-0.00000410,-0.00002886,-0.00001190,-0.00002454,0.0000
 1762,0.00000326,0.00002923,-0.00011707,0.00002644,-0.00000635,0.000006
 72,-0.00000171,-0.00000909,0.00000498,0.00001749,-0.00002185,0.0000051
 1,0.00000988,0.00000237,0.00001949,0.00005586,-0.00052884,0.04871886,0
 .00003634,0.00000480,0.00000455,0.00004192,0.00009176,0.00005050,0.000
 05854,0.00011716,-0.00001823,-0.00027522,-0.00003063,-0.00003964,0.001
 38771,0.00173788,-0.00152345,-0.00005994,-0.00046583,0.00005832,0.0002
 4127,0.00007228,0.00025060,-0.00009945,-0.00005073,0.00005653,-0.00002
 455,0.00001035,-0.00008666,0.00015887,0.00012367,0.00005297,0.00001576
 ,0.00019419,-0.00011512,-0.01221173,0.00148436,-0.00638973,-0.14879464
 ,-0.01166221,-0.18250576,-0.00067161,-0.00197248,0.00259928,-0.0025355
 6,-0.00140296,0.00392844,0.00084527,0.00018120,-0.00015089,-0.00151268
 ,-0.00416993,0.00176250,-0.00002305,-0.00004569,-0.00000807,-0.0000040
 2,-0.00001332,0.00000860,-0.00000731,0.00002503,-0.00002611,0.00000868
 ,0.00001171,-0.00001297,-0.00001048,0.00001016,-0.00000003,-0.00000204
 ,-0.00000166,-0.00000828,0.00000214,-0.00000616,-0.00000844,-0.0000584
 3,-0.00005423,-0.00013678,0.16179766,0.01438699,0.18443317,-0.00002002
 ,0.00005963,-0.00001563,0.00003921,0.00003758,-0.00004455,0.00002643,0
 .00002904,0.00002075,-0.00032476,-0.00004728,0.00004617,0.00021581,0.0
 0127479,0.00052123,0.00019061,0.00001940,-0.00002513,-0.00001128,-0.00
 000699,0.00001298,-0.00001844,-0.00001232,0.00000383,-0.00002640,0.000
 00141,-0.00001610,0.00000803,-0.00001035,-0.00000089,-0.00004090,0.000
 00111,-0.00000709,0.00085379,0.00397519,-0.00329895,0.00542332,0.01596
 902,0.01094532,-0.05194707,-0.01844875,-0.02298574,0.00265606,-0.01753
 390,-0.01268498,-0.00032569,0.00177580,-0.00547157,-0.00104243,0.00027
 629,-0.00002995,0.00001477,0.00000641,0.00000284,-0.00000803,-0.000002
 23,-0.00000466,0.00000319,0.00001126,0.00000483,0.00000310,0.00000240,
 0.00000938,-0.00000561,0.00000336,0.00000094,-0.00000293,0.00000472,0.
 00000227,-0.00001069,0.00000527,0.00000748,0.00000898,0.00001786,0.000
 00166,-0.00108173,-0.00150433,0.00205735,0.04669832,0.00004924,-0.0000
 5975,0.00001468,-0.00015363,-0.00000309,0.00005490,-0.00005845,-0.0001
 3733,0.00003291,0.00037179,0.00022601,-0.00013248,-0.00004173,-0.00102
 988,-0.00050117,-0.00024978,-0.00005404,-0.00000038,0.00004801,0.00000
 896,0.00001107,-0.00000772,-0.00000075,0.00001206,0.00001417,0.0000081
 2,-0.00000779,0.00001236,0.00000164,0.00000432,-0.00000114,0.00003480,
 0.00000926,0.00425569,-0.00010970,-0.00049463,-0.00353671,-0.01231463,
 -0.01369817,-0.01814453,-0.23729026,-0.13818477,0.00226117,0.00386315,
 0.00144627,0.00155082,0.00233569,-0.00131191,0.00013300,0.00012874,0.0
 0076624,-0.00001274,-0.00000594,-0.00000971,0.00000849,0.00000986,0.00
 000089,0.00001655,-0.00001458,-0.00002761,-0.00000218,-0.00000776,-0.0
 0001116,0.00000611,-0.00000225,-0.00000082,0.00000124,-0.00000133,-0.0
 0000142,0.00000581,-0.00000125,-0.00000221,-0.00000427,-0.00001335,0.0
 0000437,-0.00139894,0.00007719,0.00131400,0.01628572,0.24471316,-0.000
 00869,-0.00000557,0.00000101,0.00005437,0.00001168,-0.00004486,0.00002
 110,0.00005347,-0.00003164,-0.00005030,-0.00003681,0.00007703,-0.00020
 045,0.00028422,0.00014045,0.00006986,-0.00000347,0.00002728,-0.0000364
 7,0.00000670,-0.00003606,0.00002540,0.00001194,-0.00001860,0.00000769,
 -0.00001236,0.00002410,-0.00002807,0.00000369,-0.00000528,0.00004238,-
 0.00002400,0.00000582,-0.00310951,-0.00076337,0.00379760,-0.00142005,0
 .00472834,0.00602242,-0.02297436,-0.13839343,-0.14529541,-0.00027349,-
 0.01663430,-0.00566899,-0.00551904,-0.00138752,0.00078046,-0.00009540,
 0.00094082,-0.00039311,-0.00000182,0.00000104,0.00000576,-0.00000069,-
 0.00000119,0.00000065,-0.00000946,0.00000616,0.00001579,-0.00000108,0.
 00000846,0.00000096,-0.00000111,0.00000270,0.00000048,0.00000010,-0.00
 000072,0.00000089,0.00000672,-0.00000454,-0.00000320,-0.00000652,-0.00
 000985,-0.00000654,0.00204504,0.00127068,-0.00157646,0.02891562,0.1491
 3960,0.14427436,-0.00002397,0.00001872,0.00000322,0.00003996,-0.000019
 09,-0.00005694,-0.00003207,0.00003743,-0.00005095,0.00006060,-0.000085
 38,0.00013020,-0.00037432,-0.00021613,0.00064068,0.00000059,0.00003066
 ,-0.00006725,-0.00001249,-0.00001523,0.00001625,0.00000695,0.00000325,
 -0.00000110,0.00000075,-0.00000224,0.00000261,0.00000228,-0.00000185,-
 0.00000103,0.00000815,0.00000501,-0.00003071,-0.00008049,-0.00083947,-
 0.00041481,0.00044684,0.00074700,-0.00543157,-0.00746786,0.01684595,-0
 .00086014,-0.16063030,0.14148134,-0.02575490,0.00607777,-0.00455296,-0
 .00127379,0.00330154,0.00075764,-0.00301958,0.00000458,0.00000093,-0.0
 0000015,0.00000050,-0.00000369,-0.00000215,0.00000205,-0.00000104,0.00
 001591,0.00000195,-0.00000516,0.00000240,-0.00000121,-0.00000135,-0.00
 000002,-0.00000050,0.00000097,0.00000083,-0.00000496,0.00000251,0.0000
 0035,0.00000506,0.00000668,-0.00000294,-0.00047578,0.00070751,0.000051
 69,-0.00093626,-0.00120867,0.00208255,0.16118258,0.00000625,-0.0000142
 2,0.00000425,-0.00000550,0.00002184,-0.00002354,0.00000614,0.00003752,
 -0.00002514,0.00000866,-0.00004865,0.00001414,-0.00017413,-0.00015651,
 0.00046402,-0.00003036,0.00001043,-0.00000456,0.00000679,-0.00000457,-
 0.00000144,0.00000062,-0.00000115,-0.00000181,0.00000247,0.00000196,-0
 .00000089,0.00000099,-0.00000492,0.00000403,-0.00000257,0.00000430,-0.
 00001144,-0.00086222,0.00018386,-0.00056697,0.00094681,0.00208096,-0.0
 0206714,-0.00317173,0.00525101,-0.00245620,0.14149963,-0.22272788,0.01
 936460,0.01538634,-0.01186550,0.00429206,0.00057922,-0.00134224,-0.004
 56712,-0.00000154,0.00000057,-0.00000332,0.00000311,0.00000407,-0.0000
 0203,0.00001239,0.00000506,-0.00000337,0.00000040,0.00000098,-0.000000
 87,0.00000064,-0.00000082,-0.00000021,0.00000003,0.00000035,0.00000057
 ,-0.00000061,0.00000089,0.00000052,-0.00000158,-0.00000588,0.00000295,
 -0.00019961,0.00013943,-0.00006375,-0.00108779,-0.00021281,0.00128939,
 -0.15234702,0.22921991,0.00004394,-0.00003215,-0.00000604,-0.00004942,
 0.00005839,0.00004913,0.00007175,-0.00000731,0.00006556,-0.00015402,0.
 00001428,-0.00014220,0.00048928,0.00043656,-0.00043521,-0.00000932,-0.
 00005129,0.00002048,0.00003234,0.00002042,0.00002052,-0.00000386,-0.00
 000195,0.00001511,-0.00000069,0.00000068,-0.00000983,0.00001161,0.0000
 1082,0.00000496,0.00000111,0.00002212,0.00001056,-0.00034655,-0.000660
 58,-0.00097429,-0.00558885,-0.00185322,0.00059587,-0.01263952,0.015936
 41,0.00252524,-0.02599402,0.01930465,-0.05186839,0.01081039,-0.0140705
 9,0.00597339,-0.00288138,-0.00469121,0.00138237,-0.00000942,-0.0000087
 2,-0.00000283,0.00000039,0.00000438,0.00000020,0.00000208,0.00001113,-
 0.00002036,0.00000053,-0.00001041,-0.00000308,0.00000139,0.00000069,-0
 .00000018,0.00000023,-0.00000131,-0.00000087,0.00000326,-0.00000075,0.
 00000069,-0.00001277,-0.00001279,-0.00000572,-0.00047828,0.00074983,-0
 .00006342,0.00214114,0.00122679,-0.00126573,0.03207808,-0.01728249,0.0
 4535515,-0.00004178,0.00005229,-0.00000352,0.00011657,0.00000419,0.000
 04458,0.00005917,0.00010918,0.00000960,-0.00026183,-0.00039399,0.00000
 878,-0.00056409,0.00035617,-0.00057508,0.00017174,0.00011475,-0.000108
 44,-0.00007717,-0.00002653,0.00001256,0.00000329,0.00000593,-0.0000123
 1,-0.00000432,-0.00000676,0.00000555,-0.00000568,0.00000157,0.00000616
 ,-0.00001678,-0.00000720,-0.00001300,0.00201075,0.00407312,-0.00204807
 ,-0.00010769,0.00007985,0.00083515,0.00363331,0.00116379,-0.00238742,0
 .00281499,0.00207253,-0.00061913,-0.19458814,-0.00205391,-0.14848997,-
 0.00755351,-0.00243052,-0.01261278,0.00001076,0.00000281,-0.00000839,-
 0.00000534,-0.00000743,-0.00000255,-0.00000684,0.00001192,-0.00002535,
 0.00000339,-0.00000289,0.00000831,-0.00000631,0.00000134,0.00000203,-0
 .00000054,-0.00000062,0.00000062,-0.00000843,-0.00000017,-0.00000229,-
 0.00000211,0.00001137,-0.00001661,-0.00035294,-0.00023169,0.00033307,-
 0.00006419,0.00004152,0.00008946,-0.00125316,-0.00122048,0.00193665,0.
 19716647,0.00001852,-0.00004287,-0.00000844,-0.00008474,-0.00005313,0.
 00000139,-0.00003662,-0.00012012,0.00000657,0.00021841,0.00051637,-0.0
 0003786,0.00119565,-0.00022108,0.00074881,-0.00002344,-0.00027626,0.00
 012261,0.00008295,0.00000832,-0.00002663,0.00001704,0.00001125,0.00002
 069,0.00001051,-0.00000618,0.00000697,-0.00000490,0.00000564,0.0000019
 5,0.00000303,0.00001038,-0.00000191,0.00372719,-0.00169243,-0.00179254
 ,0.00014769,-0.00105438,-0.00000117,0.00141348,-0.00249915,-0.00442427
 ,-0.01741270,0.00381195,-0.01699126,-0.00248052,-0.05270535,-0.0111410
 2,0.01714780,0.00413643,0.01644569,-0.00000201,0.00000443,0.00000677,0
 .00000907,0.00000619,0.00000097,0.00003794,-0.00003026,0.00003320,-0.0
 0000326,-0.00000633,-0.00000792,0.00000793,0.00000265,0.00000171,0.000
 00114,-0.00000146,-0.00000132,0.00000313,0.00000051,-0.00000139,0.0000
 0216,-0.00000199,0.00000029,-0.00023293,-0.00007282,0.00025208,-0.0008
 5107,0.00002692,-0.00067008,-0.00109473,0.00007828,0.00152334,-0.00028
 819,0.05015519,0.00000748,0.00000535,0.00000416,-0.00000309,0.00001577
 ,-0.00003737,-0.00002830,0.00000748,-0.00001577,0.00000364,-0.00008092
 ,0.00000941,-0.00003033,-0.00022122,0.00008482,-0.00004991,0.00007755,
 -0.00000248,-0.00000363,0.00001355,0.00001721,-0.00000792,-0.00000639,
 -0.00000090,-0.00000407,0.00000590,-0.00000541,0.00000807,0.00000193,-
 0.00000304,0.00001650,-0.00001174,-0.00000500,-0.00215166,-0.00128288,
 0.00408281,0.00094392,-0.00025428,-0.00019578,-0.00243921,-0.00450197,
 0.00171048,-0.01239434,0.00190626,-0.00579142,-0.14884999,-0.01136664,
 -0.18637103,-0.00044622,-0.00220864,0.00221777,-0.00000234,-0.00000440
 ,0.00000369,-0.00000304,-0.00000214,0.00000409,-0.00002824,0.00001958,
 0.00001267,0.00000139,0.00000143,0.00000059,-0.00000071,-0.00000353,-0
 .00000234,0.,0.00000029,-0.00000006,0.00000116,0.00000009,0.00000096,0
 .00000231,-0.00000122,0.00000102,0.00030193,0.00024680,-0.00039895,-0.
 00047352,0.00015026,-0.00045402,0.00194791,0.00142848,-0.00131427,0.16
 168255,0.01468344,0.18787889,-0.00005306,-0.00001177,0.00004350,-0.000
 00482,0.00008692,-0.00021846,-0.00007745,0.00024111,-0.00040138,0.0005
 4103,0.00076789,0.00010643,-0.00004728,-0.00268237,0.00273413,-0.00027
 680,0.00007877,-0.00011276,0.00004076,0.00000148,0.00004238,0.00002275
 ,-0.00001394,-0.00001132,0.00002043,-0.00000176,0.00000267,-0.00001280
 ,-0.00001870,0.00005319,0.00001272,0.00010240,-0.00011214,0.00203758,-
 0.01642158,-0.01232483,-0.00090812,0.00179521,-0.00481320,-0.00106566,
 0.00027386,0.00010099,0.00062123,0.00453999,-0.00321528,0.00622602,0.0
 1488732,0.01156108,-0.04928722,-0.01293755,-0.02200917,-0.00000196,0.0
 0001652,-0.00000852,0.00001643,0.00001560,-0.00001869,0.00007886,-0.00
 012710,0.00016583,-0.00000324,0.00000032,-0.00000480,0.00000333,-0.000
 00461,0.00000043,0.00000434,-0.00000278,0.00000561,-0.00000032,-0.0000
 0434,-0.00000587,-0.00003717,-0.00009870,0.00000775,0.00023822,-0.0007
 3338,-0.00074559,-0.00027516,-0.00024117,0.00037622,0.00015122,0.00064
 465,0.00054392,-0.00106958,-0.00152853,0.00199965,0.04310572,-0.000005
 40,0.00009290,-0.00003155,-0.00004878,-0.00016226,-0.00006684,0.000092
 73,-0.00049219,0.00029028,0.00032382,0.00032611,0.00048177,-0.00112236
 ,-0.00037586,0.00164274,-0.00003451,0.00023423,-0.00017911,-0.00004047
 ,-0.00000157,0.00005292,-0.00000138,-0.00001569,-0.00000464,-0.0000011
 4,0.00000271,-0.00000564,0.00000320,-0.00002070,0.00003440,-0.00003561
 ,0.00006613,-0.00009854,0.00272009,0.00123474,0.00125269,0.00115234,0.
 00234757,-0.00109640,0.00026779,-0.00003031,0.00089273,0.00497786,-0.0
 0096545,-0.00047234,-0.00415252,-0.01224688,-0.01439880,-0.01374352,-0
 .22636744,-0.13944030,0.00002266,-0.00000027,-0.00002936,-0.00000789,-
 0.00000284,0.00003094,0.00000576,0.00001529,0.00010946,-0.00000139,-0.
 00000260,0.00000600,-0.00000439,-0.00000418,-0.00000042,0.00000303,-0.
 00000157,0.00000488,-0.00000657,-0.00000283,-0.00000420,-0.00004510,-0
 .00005347,-0.00001055,0.00024029,0.00010770,-0.00007805,-0.00025123,-0
 .00017553,0.00018833,-0.00025159,-0.00065631,-0.00063571,-0.00143195,0
 .00000930,0.00138180,0.01137624,0.23714131,0.00044152,-0.00043681,-0.0
 0003354,-0.00037305,0.00066883,0.00015540,0.00048623,0.00044233,0.0000
 8280,-0.00137068,-0.00039111,-0.00077737,0.00268749,0.00130918,-0.0010
 8784,-0.00024879,-0.00021629,0.00022700,0.00013026,0.00003773,-0.00001
 604,0.00001111,0.00000565,0.00000787,0.00002513,-0.00000550,-0.0000000
 4,0.00000335,0.00003336,-0.00000296,0.00007694,0.00000095,0.00004340,0
 .00059267,-0.01657197,-0.00626286,-0.00500837,-0.00022957,0.00059936,0
 .00016558,0.00081057,-0.00035475,-0.00300467,-0.00068501,0.00351177,-0
 .00090634,0.00420443,0.00588070,-0.02215813,-0.14011505,-0.14869939,-0
 .00007797,-0.00004819,-0.00001686,0.00003144,0.00007021,-0.00000078,0.
 00009831,0.00022273,-0.00015323,-0.00000257,-0.00001295,-0.00002995,0.
 00001060,-0.00000043,-0.00000107,0.00000099,-0.00000216,-0.00000446,0.
 00001422,0.00000170,0.00000104,0.00000842,-0.00001796,-0.00000784,-0.0
 0020206,-0.00092136,-0.00013647,0.00036497,0.00019662,-0.00037515,-0.0
 0000465,0.00021727,0.00009318,0.00194985,0.00124931,-0.00143070,0.0262
 5821,0.15018350,0.14878879\\0.00000104,0.00001521,0.00000011,0.0000011
 7,-0.00005244,-0.00001105,0.00000709,-0.00000205,0.00000359,-0.0000120
 5,0.00005777,0.00000906,-0.00000976,-0.00001834,0.00000113,0.00001455,
 -0.00000033,-0.00000081,0.00000181,-0.00000134,0.00000491,0.00000258,-
 0.00000022,-0.00000175,-0.00000019,-0.00000284,0.00000121,-0.00000288,
 0.00000104,-0.00000253,-0.00000084,0.00000352,-0.00000418,0.00000172,0
 .00000554,0.00000175,0.00000212,-0.00000329,-0.00000083,0.00000165,0.0
 0000250,0.00000269,-0.00000063,-0.00000156,0.00000022,-0.00000022,-0.0
 0000692,-0.00000219,-0.00000429,-0.00000143,-0.00000453,0.00000027,0.0
 0000003,0.00000025,0.00000281,-0.00000021,0.00000387,-0.00000192,0.000
 00070,0.00000094,-0.00000067,-0.00000051,-0.00000220,0.00000151,0.0000
 0048,-0.00000099,0.00000072,0.00000212,-0.00000207,0.00000027,-0.00000
 026,-0.00000293,-0.00000226,-0.00000061,-0.00000135,0.00000080,-0.0000
 0028,0.00000146,-0.00000093,0.00000166,0.00000073,-0.00000039,0.000001
 86,0.00000152,-0.00000178,0.00000160,0.00000216,-0.00000130,-0.0000014
 1,0.00000181\\\@


 THE ENLIGHTENED ONE, BECAUSE HE SAW MANKIND DROWNING  
 IN THE GREAT SEA OF BIRTH, DEATH, AND SORROW, LONGED TO SAVE 
 THEM, FOR THIS HE WAS MOVED TO PITY.                         
 BECAUSE HE SAW MEN OF THE WORLD STRAYING IN FALSE PATHS, AND 
 NONE TO GUIDE THEM, FOR THIS HE WAS MOVED TO PITY.           
                     ..................                       
 BECAUSE HE SAW THE MEN OF THE WORLD PLOUGHING THEIR FIELDS,  
 SOWING THE SEED, TRAFFICKING, HUCKSTERING, BUYING, SELLING,  
 AND AT THE END WINNOWING NOTHING BUT BITTERNESS,             
 FOR THIS HE WAS MOVED TO PITY......                   
                   BUDAH'S PITY - UPSAKA SILA SUTRA           
 Job cpu time:       0 days  3 hours  4 minutes 36.5 seconds.
 Elapsed time:       0 days  0 hours 11 minutes 40.1 seconds.
 File lengths (MBytes):  RWF=    800 Int=      0 D2E=      0 Chk=     16 Scr=     16
 Normal termination of Gaussian 16 at Wed May 11 06:23:38 2022.
