 Entering Gaussian System, Link 0=/mnt/gpfs3_amd/share/apps/amd/gaussian/g16-A.03/g16/g16
 Input=/scratch/rdu230/d3tales/high_throughput/runfiles//90PSTI/gaussian/mol_opt/opt_mol.com
 Output=/scratch/rdu230/d3tales/high_throughput/runfiles//90PSTI/gaussian/mol_opt/opt_mol.log
 Initial command:
 /mnt/gpfs3_amd/share/apps/amd/gaussian/g16-A.03/g16/l1.exe "/scratch/rdu230/d3tales/high_throughput/runfiles/90PSTI/gaussian/mol_opt/Gau-881347.inp" -scrdir="/scratch/rdu230/d3tales/high_throughput/runfiles/90PSTI/gaussian/mol_opt/"
 Entering Link 1 = /mnt/gpfs3_amd/share/apps/amd/gaussian/g16-A.03/g16/l1.exe PID=    881348.
  
 Copyright (c) 1988,1990,1992,1993,1995,1998,2003,2009,2016,
            Gaussian, Inc.  All Rights Reserved.
  
 This is part of the Gaussian(R) 16 program.  It is based on
 the Gaussian(R) 09 system (copyright 2009, Gaussian, Inc.),
 the Gaussian(R) 03 system (copyright 2003, Gaussian, Inc.),
 the Gaussian(R) 98 system (copyright 1998, Gaussian, Inc.),
 the Gaussian(R) 94 system (copyright 1995, Gaussian, Inc.),
 the Gaussian 92(TM) system (copyright 1992, Gaussian, Inc.),
 the Gaussian 90(TM) system (copyright 1990, Gaussian, Inc.),
 the Gaussian 88(TM) system (copyright 1988, Gaussian, Inc.),
 the Gaussian 86(TM) system (copyright 1986, Carnegie Mellon
 University), and the Gaussian 82(TM) system (copyright 1983,
 Carnegie Mellon University). Gaussian is a federally registered
 trademark of Gaussian, Inc.
  
 This software contains proprietary and confidential information,
 including trade secrets, belonging to Gaussian, Inc.
  
 This software is provided under written license and may be
 used, copied, transmitted, or stored only in accord with that
 written license.
  
 The following legend is applicable only to US Government
 contracts under FAR:
  
                    RESTRICTED RIGHTS LEGEND
  
 Use, reproduction and disclosure by the US Government is
 subject to restrictions as set forth in subparagraphs (a)
 and (c) of the Commercial Computer Software - Restricted
 Rights clause in FAR 52.227-19.
  
 Gaussian, Inc.
 340 Quinnipiac St., Bldg. 40, Wallingford CT 06492
  
  
 ---------------------------------------------------------------
 Warning -- This program may not be used in any manner that
 competes with the business of Gaussian, Inc. or will provide
 assistance to any competitor of Gaussian, Inc.  The licensee
 of this program is prohibited from giving any competitor of
 Gaussian, Inc. access to this program.  By using this program,
 the user acknowledges that Gaussian, Inc. is engaged in the
 business of creating and licensing software in the field of
 computational chemistry and represents and warrants to the
 licensee that it is not a competitor of Gaussian, Inc. and that
 it will not use this program in any manner prohibited above.
 ---------------------------------------------------------------
  

 Cite this work as:
 Gaussian 16, Revision A.03,
 M. J. Frisch, G. W. Trucks, H. B. Schlegel, G. E. Scuseria, 
 M. A. Robb, J. R. Cheeseman, G. Scalmani, V. Barone, 
 G. A. Petersson, H. Nakatsuji, X. Li, M. Caricato, A. V. Marenich, 
 J. Bloino, B. G. Janesko, R. Gomperts, B. Mennucci, H. P. Hratchian, 
 J. V. Ortiz, A. F. Izmaylov, J. L. Sonnenberg, D. Williams-Young, 
 F. Ding, F. Lipparini, F. Egidi, J. Goings, B. Peng, A. Petrone, 
 T. Henderson, D. Ranasinghe, V. G. Zakrzewski, J. Gao, N. Rega, 
 G. Zheng, W. Liang, M. Hada, M. Ehara, K. Toyota, R. Fukuda, 
 J. Hasegawa, M. Ishida, T. Nakajima, Y. Honda, O. Kitao, H. Nakai, 
 T. Vreven, K. Throssell, J. A. Montgomery, Jr., J. E. Peralta, 
 F. Ogliaro, M. J. Bearpark, J. J. Heyd, E. N. Brothers, K. N. Kudin, 
 V. N. Staroverov, T. A. Keith, R. Kobayashi, J. Normand, 
 K. Raghavachari, A. P. Rendell, J. C. Burant, S. S. Iyengar, 
 J. Tomasi, M. Cossi, J. M. Millam, M. Klene, C. Adamo, R. Cammi, 
 J. W. Ochterski, R. L. Martin, K. Morokuma, O. Farkas, 
 J. B. Foresman, and D. J. Fox, Gaussian, Inc., Wallingford CT, 2016.
 
 ******************************************
 Gaussian 16:  AM64L-G16RevA.03 25-Dec-2016
                10-Aug-2022 
 ******************************************
 %chk=/scratch/rdu230/d3tales/high_throughput/runfiles//90PSTI/gaussian/mol_opt/o
 pt_mol.chk
 %mem=48GB
 %nprocshared=16
 Will use up to   16 processors via shared memory.
 ----------------------------------------------------------------------
 #P LC-wHPBE/Def2SVP iop(3/107=0175500000, 3/108=0175500000) opt scf(ma
 xcyc=512)
 ----------------------------------------------------------------------
 1/18=20,19=15,26=3,38=1/1,3;
 2/9=110,12=2,17=6,18=5,40=1/2;
 3/5=43,7=101,11=2,25=1,30=1,71=1,74=-71,107=175500000,108=175500000/1,2,3;
 4//1;
 5/5=2,7=512,38=5/2;
 6/7=2,8=2,9=2,10=2,28=1/1;
 7//1,2,3,16;
 1/18=20,19=15,26=3/3(2);
 2/9=110/2;
 99//99;
 2/9=110/2;
 3/5=43,7=101,11=2,25=1,30=1,71=1,74=-71,107=175500000,108=175500000/1,2,3;
 4/5=5,16=3,69=1/1;
 5/5=2,7=512,38=5/2;
 7//1,2,3,16;
 1/18=20,19=15,26=3/3(-5);
 2/9=110/2;
 6/7=2,8=2,9=2,10=2,19=2,28=1/1;
 99/9=1/99;
 Leave Link    1 at Wed Aug 10 17:46:49 2022, MaxMem=  6442450944 cpu:               3.6 elap:               0.2
 (Enter /mnt/gpfs3_amd/share/apps/amd/gaussian/g16-A.03/g16/l101.exe)
 -------------
 H32 C34 N2 O4
 -------------
 Symbolic Z-matrix:
 Charge =  0 Multiplicity = 1
 C                     5.91792   4.31481   3.12029 
 O                     4.91034   3.40686   3.51971 
 C                     4.41176   2.43031   2.65606 
 C                     3.43055   1.55306   3.05899 
 C                     2.90598   0.57877   2.25792 
 C                     3.37602   0.43614   0.93265 
 N                     2.74554  -0.60818   0.17954 
 C                     3.42163  -1.54281  -0.61135 
 C                     4.31364  -1.18095  -1.59156 
 C                     5.05431  -2.12965  -2.27321 
 C                     4.96421  -3.47743  -2.03837 
 O                     5.72479  -4.4089   -2.74396 
 C                     6.6086   -3.90782  -3.72814 
 C                     4.07326  -3.85985  -1.05897 
 C                     3.3253   -2.92794  -0.36517 
 C                     1.29723  -0.51576   0.18238 
 C                     0.44154  -1.52929   0.39271 
 C                    -0.94747  -1.35997   0.36474 
 C                    -1.50618  -0.1655    0.12513 
 N                    -2.90843   0.17479   0.07561 
 C                    -3.83652  -0.25477   1.0453 
 C                    -4.03487  -1.57353   1.41807 
 C                    -4.85481  -1.9481    2.45979 
 C                    -5.53942  -1.02204   3.20413 
 O                    -6.36882  -1.341     4.25034 
 C                    -6.56318  -2.68863   4.62314 
 C                    -5.35895   0.28878   2.852 
 C                    -4.54136   0.67758   1.81496 
 C                    -3.32453   0.85834  -1.13874 
 C                    -4.10829   1.95267  -1.20768 
 C                    -4.44928   2.51162  -2.44158 
 C                    -4.01298   1.98729  -3.62577 
 O                    -4.34024   2.52674  -4.85388 
 C                    -5.16377   3.67582  -4.92611 
 C                    -3.20908   0.86511  -3.54827 
 C                    -2.86049   0.29786  -2.35211 
 C                    -0.60901   0.90591  -0.09689 
 C                     0.74564   0.73938  -0.06977 
 C                     4.33478   1.28973   0.53043 
 C                     4.86389   2.28675   1.36778 
 H                     6.05298   5.02748   3.96568 
 H                     6.87694   3.78803   2.96189 
 H                     5.55564   4.81764   2.20611 
 H                     3.08603   1.68788   4.09128 
 H                     2.12835  -0.0914    2.62774 
 H                     4.41983  -0.15277  -1.87938 
 H                     5.74246  -1.78736  -3.03357 
 H                     7.26061  -3.15924  -3.19485 
 H                     6.05557  -3.33835  -4.49727 
 H                     7.23943  -4.71121  -4.15986 
 H                     3.96842  -4.91465  -0.84022 
 H                     2.69353  -3.29554   0.39621 
 H                     0.78349  -2.52004   0.60395 
 H                    -1.53718  -2.22929   0.53396 
 H                    -3.56072  -2.3771    0.83442 
 H                    -4.98909  -2.99763   2.73047 
 H                    -5.63411  -3.00714   5.14843 
 H                    -6.77006  -3.34682   3.76266 
 H                    -7.39764  -2.77486   5.34197 
 H                    -5.89431   1.03969   3.42994 
 H                    -4.41352   1.72353   1.62238 
 H                    -4.47698   2.41863  -0.30947 
 H                    -5.07965   3.38636  -2.42678 
 H                    -4.68556   4.5539   -4.41872 
 H                    -6.14707   3.43378  -4.47279 
 H                    -5.26234   3.95476  -5.99225 
 H                    -2.86524   0.45405  -4.50831 
 H                    -2.23794  -0.56926  -2.31938 
 H                    -1.02706   1.88112  -0.29288 
 H                     1.4122    1.56813  -0.24137 
 H                     4.74317   1.27045  -0.44056 
 H                     5.63054   2.95104   1.0104 
 
 ITRead=  0  0  0  0  0  0  0  0  0  0  0  0  0  0  0  0  0  0  0  0
 ITRead=  0  0  0  0  0  0  0  0  0  0  0  0  0  0  0  0  0  0  0  0
 ITRead=  0  0  0  0  0  0  0  0  0  0  0  0  0  0  0  0  0  0  0  0
 ITRead=  0  0  0  0  0  0  0  0  0  0  0  0
 MicOpt= -1 -1 -1 -1 -1 -1 -1 -1 -1 -1 -1 -1 -1 -1 -1 -1 -1 -1 -1 -1
 MicOpt= -1 -1 -1 -1 -1 -1 -1 -1 -1 -1 -1 -1 -1 -1 -1 -1 -1 -1 -1 -1
 MicOpt= -1 -1 -1 -1 -1 -1 -1 -1 -1 -1 -1 -1 -1 -1 -1 -1 -1 -1 -1 -1
 MicOpt= -1 -1 -1 -1 -1 -1 -1 -1 -1 -1 -1 -1
 NAtoms=     72 NQM=       72 NQMF=       0 NMMI=      0 NMMIF=      0
                NMic=       0 NMicF=      0.
                    Isotopes and Nuclear Properties:
 (Nuclear quadrupole moments (NQMom) in fm**2, nuclear magnetic moments (NMagM)
  in nuclear magnetons)

  Atom         1           2           3           4           5           6           7           8           9          10
 IAtWgt=          12          16          12          12          12          12          14          12          12          12
 AtmWgt=  12.0000000  15.9949146  12.0000000  12.0000000  12.0000000  12.0000000  14.0030740  12.0000000  12.0000000  12.0000000
 NucSpn=           0           0           0           0           0           0           2           0           0           0
 AtZEff=  -0.0000000  -0.0000000  -0.0000000  -0.0000000  -0.0000000  -0.0000000  -0.0000000  -0.0000000  -0.0000000  -0.0000000
 NQMom=    0.0000000   0.0000000   0.0000000   0.0000000   0.0000000   0.0000000   2.0440000   0.0000000   0.0000000   0.0000000
 NMagM=    0.0000000   0.0000000   0.0000000   0.0000000   0.0000000   0.0000000   0.4037610   0.0000000   0.0000000   0.0000000
 AtZNuc=   6.0000000   8.0000000   6.0000000   6.0000000   6.0000000   6.0000000   7.0000000   6.0000000   6.0000000   6.0000000

  Atom        11          12          13          14          15          16          17          18          19          20
 IAtWgt=          12          16          12          12          12          12          12          12          12          14
 AtmWgt=  12.0000000  15.9949146  12.0000000  12.0000000  12.0000000  12.0000000  12.0000000  12.0000000  12.0000000  14.0030740
 NucSpn=           0           0           0           0           0           0           0           0           0           2
 AtZEff=  -0.0000000  -0.0000000  -0.0000000  -0.0000000  -0.0000000  -0.0000000  -0.0000000  -0.0000000  -0.0000000  -0.0000000
 NQMom=    0.0000000   0.0000000   0.0000000   0.0000000   0.0000000   0.0000000   0.0000000   0.0000000   0.0000000   2.0440000
 NMagM=    0.0000000   0.0000000   0.0000000   0.0000000   0.0000000   0.0000000   0.0000000   0.0000000   0.0000000   0.4037610
 AtZNuc=   6.0000000   8.0000000   6.0000000   6.0000000   6.0000000   6.0000000   6.0000000   6.0000000   6.0000000   7.0000000

  Atom        21          22          23          24          25          26          27          28          29          30
 IAtWgt=          12          12          12          12          16          12          12          12          12          12
 AtmWgt=  12.0000000  12.0000000  12.0000000  12.0000000  15.9949146  12.0000000  12.0000000  12.0000000  12.0000000  12.0000000
 NucSpn=           0           0           0           0           0           0           0           0           0           0
 AtZEff=  -0.0000000  -0.0000000  -0.0000000  -0.0000000  -0.0000000  -0.0000000  -0.0000000  -0.0000000  -0.0000000  -0.0000000
 NQMom=    0.0000000   0.0000000   0.0000000   0.0000000   0.0000000   0.0000000   0.0000000   0.0000000   0.0000000   0.0000000
 NMagM=    0.0000000   0.0000000   0.0000000   0.0000000   0.0000000   0.0000000   0.0000000   0.0000000   0.0000000   0.0000000
 AtZNuc=   6.0000000   6.0000000   6.0000000   6.0000000   8.0000000   6.0000000   6.0000000   6.0000000   6.0000000   6.0000000

  Atom        31          32          33          34          35          36          37          38          39          40
 IAtWgt=          12          12          16          12          12          12          12          12          12          12
 AtmWgt=  12.0000000  12.0000000  15.9949146  12.0000000  12.0000000  12.0000000  12.0000000  12.0000000  12.0000000  12.0000000
 NucSpn=           0           0           0           0           0           0           0           0           0           0
 AtZEff=  -0.0000000  -0.0000000  -0.0000000  -0.0000000  -0.0000000  -0.0000000  -0.0000000  -0.0000000  -0.0000000  -0.0000000
 NQMom=    0.0000000   0.0000000   0.0000000   0.0000000   0.0000000   0.0000000   0.0000000   0.0000000   0.0000000   0.0000000
 NMagM=    0.0000000   0.0000000   0.0000000   0.0000000   0.0000000   0.0000000   0.0000000   0.0000000   0.0000000   0.0000000
 AtZNuc=   6.0000000   6.0000000   8.0000000   6.0000000   6.0000000   6.0000000   6.0000000   6.0000000   6.0000000   6.0000000

  Atom        41          42          43          44          45          46          47          48          49          50
 IAtWgt=           1           1           1           1           1           1           1           1           1           1
 AtmWgt=   1.0078250   1.0078250   1.0078250   1.0078250   1.0078250   1.0078250   1.0078250   1.0078250   1.0078250   1.0078250
 NucSpn=           1           1           1           1           1           1           1           1           1           1
 AtZEff=  -0.0000000  -0.0000000  -0.0000000  -0.0000000  -0.0000000  -0.0000000  -0.0000000  -0.0000000  -0.0000000  -0.0000000
 NQMom=    0.0000000   0.0000000   0.0000000   0.0000000   0.0000000   0.0000000   0.0000000   0.0000000   0.0000000   0.0000000
 NMagM=    2.7928460   2.7928460   2.7928460   2.7928460   2.7928460   2.7928460   2.7928460   2.7928460   2.7928460   2.7928460
 AtZNuc=   1.0000000   1.0000000   1.0000000   1.0000000   1.0000000   1.0000000   1.0000000   1.0000000   1.0000000   1.0000000

  Atom        51          52          53          54          55          56          57          58          59          60
 IAtWgt=           1           1           1           1           1           1           1           1           1           1
 AtmWgt=   1.0078250   1.0078250   1.0078250   1.0078250   1.0078250   1.0078250   1.0078250   1.0078250   1.0078250   1.0078250
 NucSpn=           1           1           1           1           1           1           1           1           1           1
 AtZEff=  -0.0000000  -0.0000000  -0.0000000  -0.0000000  -0.0000000  -0.0000000  -0.0000000  -0.0000000  -0.0000000  -0.0000000
 NQMom=    0.0000000   0.0000000   0.0000000   0.0000000   0.0000000   0.0000000   0.0000000   0.0000000   0.0000000   0.0000000
 NMagM=    2.7928460   2.7928460   2.7928460   2.7928460   2.7928460   2.7928460   2.7928460   2.7928460   2.7928460   2.7928460
 AtZNuc=   1.0000000   1.0000000   1.0000000   1.0000000   1.0000000   1.0000000   1.0000000   1.0000000   1.0000000   1.0000000

  Atom        61          62          63          64          65          66          67          68          69          70
 IAtWgt=           1           1           1           1           1           1           1           1           1           1
 AtmWgt=   1.0078250   1.0078250   1.0078250   1.0078250   1.0078250   1.0078250   1.0078250   1.0078250   1.0078250   1.0078250
 NucSpn=           1           1           1           1           1           1           1           1           1           1
 AtZEff=  -0.0000000  -0.0000000  -0.0000000  -0.0000000  -0.0000000  -0.0000000  -0.0000000  -0.0000000  -0.0000000  -0.0000000
 NQMom=    0.0000000   0.0000000   0.0000000   0.0000000   0.0000000   0.0000000   0.0000000   0.0000000   0.0000000   0.0000000
 NMagM=    2.7928460   2.7928460   2.7928460   2.7928460   2.7928460   2.7928460   2.7928460   2.7928460   2.7928460   2.7928460
 AtZNuc=   1.0000000   1.0000000   1.0000000   1.0000000   1.0000000   1.0000000   1.0000000   1.0000000   1.0000000   1.0000000

  Atom        71          72
 IAtWgt=           1           1
 AtmWgt=   1.0078250   1.0078250
 NucSpn=           1           1
 AtZEff=  -0.0000000  -0.0000000
 NQMom=    0.0000000   0.0000000
 NMagM=    2.7928460   2.7928460
 AtZNuc=   1.0000000   1.0000000
 Leave Link  101 at Wed Aug 10 17:46:50 2022, MaxMem=  6442450944 cpu:               2.2 elap:               0.1
 (Enter /mnt/gpfs3_amd/share/apps/amd/gaussian/g16-A.03/g16/l103.exe)

 GradGradGradGradGradGradGradGradGradGradGradGradGradGradGradGradGradGrad
 Berny optimization.
 Initialization pass.
                           ----------------------------
                           !    Initial Parameters    !
                           ! (Angstroms and Degrees)  !
 --------------------------                            --------------------------
 ! Name  Definition              Value          Derivative Info.                !
 --------------------------------------------------------------------------------
 ! R1    R(1,2)                  1.4139         estimate D2E/DX2                !
 ! R2    R(1,41)                 1.1139         estimate D2E/DX2                !
 ! R3    R(1,42)                 1.1056         estimate D2E/DX2                !
 ! R4    R(1,43)                 1.1045         estimate D2E/DX2                !
 ! R5    R(2,3)                  1.3957         estimate D2E/DX2                !
 ! R6    R(3,4)                  1.3765         estimate D2E/DX2                !
 ! R7    R(3,40)                 1.3728         estimate D2E/DX2                !
 ! R8    R(4,5)                  1.3661         estimate D2E/DX2                !
 ! R9    R(4,44)                 1.0966         estimate D2E/DX2                !
 ! R10   R(5,6)                  1.4134         estimate D2E/DX2                !
 ! R11   R(5,45)                 1.0911         estimate D2E/DX2                !
 ! R12   R(6,7)                  1.4336         estimate D2E/DX2                !
 ! R13   R(6,39)                 1.3452         estimate D2E/DX2                !
 ! R14   R(7,8)                  1.3986         estimate D2E/DX2                !
 ! R15   R(7,16)                 1.4513         estimate D2E/DX2                !
 ! R16   R(8,9)                  1.3738         estimate D2E/DX2                !
 ! R17   R(8,15)                 1.4101         estimate D2E/DX2                !
 ! R18   R(9,10)                 1.3832         estimate D2E/DX2                !
 ! R19   R(9,46)                 1.073          estimate D2E/DX2                !
 ! R20   R(10,11)                1.371          estimate D2E/DX2                !
 ! R21   R(10,47)                1.0811         estimate D2E/DX2                !
 ! R22   R(11,12)                1.3943         estimate D2E/DX2                !
 ! R23   R(11,14)                1.3781         estimate D2E/DX2                !
 ! R24   R(12,13)                1.4145         estimate D2E/DX2                !
 ! R25   R(13,48)                1.1269         estimate D2E/DX2                !
 ! R26   R(13,49)                1.1053         estimate D2E/DX2                !
 ! R27   R(13,50)                1.1089         estimate D2E/DX2                !
 ! R28   R(14,15)                1.3818         estimate D2E/DX2                !
 ! R29   R(14,51)                1.0823         estimate D2E/DX2                !
 ! R30   R(15,52)                1.0554         estimate D2E/DX2                !
 ! R31   R(16,17)                1.343          estimate D2E/DX2                !
 ! R32   R(16,38)                1.394          estimate D2E/DX2                !
 ! R33   R(17,18)                1.3996         estimate D2E/DX2                !
 ! R34   R(17,53)                1.0692         estimate D2E/DX2                !
 ! R35   R(18,19)                1.3403         estimate D2E/DX2                !
 ! R36   R(18,54)                1.064          estimate D2E/DX2                !
 ! R37   R(19,20)                1.4438         estimate D2E/DX2                !
 ! R38   R(19,37)                1.415          estimate D2E/DX2                !
 ! R39   R(20,21)                1.4093         estimate D2E/DX2                !
 ! R40   R(20,29)                1.4543         estimate D2E/DX2                !
 ! R41   R(21,22)                1.3847         estimate D2E/DX2                !
 ! R42   R(21,28)                1.3994         estimate D2E/DX2                !
 ! R43   R(22,23)                1.3776         estimate D2E/DX2                !
 ! R44   R(22,55)                1.1005         estimate D2E/DX2                !
 ! R45   R(23,24)                1.3713         estimate D2E/DX2                !
 ! R46   R(23,56)                1.0922         estimate D2E/DX2                !
 ! R47   R(24,25)                1.3727         estimate D2E/DX2                !
 ! R48   R(24,27)                1.3692         estimate D2E/DX2                !
 ! R49   R(25,26)                1.4117         estimate D2E/DX2                !
 ! R50   R(26,57)                1.1138         estimate D2E/DX2                !
 ! R51   R(26,58)                1.1029         estimate D2E/DX2                !
 ! R52   R(26,59)                1.1047         estimate D2E/DX2                !
 ! R53   R(27,28)                1.3766         estimate D2E/DX2                !
 ! R54   R(27,60)                1.0883         estimate D2E/DX2                !
 ! R55   R(28,61)                1.0712         estimate D2E/DX2                !
 ! R56   R(29,30)                1.3478         estimate D2E/DX2                !
 ! R57   R(29,36)                1.4148         estimate D2E/DX2                !
 ! R58   R(30,31)                1.3969         estimate D2E/DX2                !
 ! R59   R(30,62)                1.0769         estimate D2E/DX2                !
 ! R60   R(31,32)                1.3666         estimate D2E/DX2                !
 ! R61   R(31,63)                1.0783         estimate D2E/DX2                !
 ! R62   R(32,33)                1.3807         estimate D2E/DX2                !
 ! R63   R(32,35)                1.3826         estimate D2E/DX2                !
 ! R64   R(33,34)                1.4156         estimate D2E/DX2                !
 ! R65   R(34,64)                1.1212         estimate D2E/DX2                !
 ! R66   R(34,65)                1.1095         estimate D2E/DX2                !
 ! R67   R(34,66)                1.1064         estimate D2E/DX2                !
 ! R68   R(35,36)                1.369          estimate D2E/DX2                !
 ! R69   R(35,67)                1.0995         estimate D2E/DX2                !
 ! R70   R(36,68)                1.068          estimate D2E/DX2                !
 ! R71   R(37,38)                1.3651         estimate D2E/DX2                !
 ! R72   R(37,69)                1.079          estimate D2E/DX2                !
 ! R73   R(38,70)                1.0773         estimate D2E/DX2                !
 ! R74   R(39,40)                1.4054         estimate D2E/DX2                !
 ! R75   R(39,71)                1.0535         estimate D2E/DX2                !
 ! R76   R(40,72)                1.0755         estimate D2E/DX2                !
 ! A1    A(2,1,41)             106.4306         estimate D2E/DX2                !
 ! A2    A(2,1,42)             110.6499         estimate D2E/DX2                !
 ! A3    A(2,1,43)             107.0039         estimate D2E/DX2                !
 ! A4    A(41,1,42)            107.9626         estimate D2E/DX2                !
 ! A5    A(41,1,43)            112.128          estimate D2E/DX2                !
 ! A6    A(42,1,43)            112.5117         estimate D2E/DX2                !
 ! A7    A(1,2,3)              121.9407         estimate D2E/DX2                !
 ! A8    A(2,3,4)              121.292          estimate D2E/DX2                !
 ! A9    A(2,3,40)             122.4246         estimate D2E/DX2                !
 ! A10   A(4,3,40)             116.2834         estimate D2E/DX2                !
 ! A11   A(3,4,5)              123.822          estimate D2E/DX2                !
 ! A12   A(3,4,44)             114.9082         estimate D2E/DX2                !
 ! A13   A(5,4,44)             121.2698         estimate D2E/DX2                !
 ! A14   A(4,5,6)              119.6116         estimate D2E/DX2                !
 ! A15   A(4,5,45)             120.8616         estimate D2E/DX2                !
 ! A16   A(6,5,45)             119.5267         estimate D2E/DX2                !
 ! A17   A(5,6,7)              114.8235         estimate D2E/DX2                !
 ! A18   A(5,6,39)             116.9596         estimate D2E/DX2                !
 ! A19   A(7,6,39)             128.2131         estimate D2E/DX2                !
 ! A20   A(6,7,8)              124.8378         estimate D2E/DX2                !
 ! A21   A(6,7,16)             113.0459         estimate D2E/DX2                !
 ! A22   A(8,7,16)             121.7407         estimate D2E/DX2                !
 ! A23   A(7,8,9)              122.7726         estimate D2E/DX2                !
 ! A24   A(7,8,15)             121.6455         estimate D2E/DX2                !
 ! A25   A(9,8,15)             115.3176         estimate D2E/DX2                !
 ! A26   A(8,9,10)             121.2399         estimate D2E/DX2                !
 ! A27   A(8,9,46)             120.5337         estimate D2E/DX2                !
 ! A28   A(10,9,46)            118.1675         estimate D2E/DX2                !
 ! A29   A(9,10,11)            123.6853         estimate D2E/DX2                !
 ! A30   A(9,10,47)            118.0516         estimate D2E/DX2                !
 ! A31   A(11,10,47)           118.2631         estimate D2E/DX2                !
 ! A32   A(10,11,12)           122.2899         estimate D2E/DX2                !
 ! A33   A(10,11,14)           115.9124         estimate D2E/DX2                !
 ! A34   A(12,11,14)           121.7977         estimate D2E/DX2                !
 ! A35   A(11,12,13)           117.1481         estimate D2E/DX2                !
 ! A36   A(12,13,48)           105.5196         estimate D2E/DX2                !
 ! A37   A(12,13,49)           110.7349         estimate D2E/DX2                !
 ! A38   A(12,13,50)           111.6949         estimate D2E/DX2                !
 ! A39   A(48,13,49)           106.0543         estimate D2E/DX2                !
 ! A40   A(48,13,50)           109.6551         estimate D2E/DX2                !
 ! A41   A(49,13,50)           112.7663         estimate D2E/DX2                !
 ! A42   A(11,14,15)           121.3074         estimate D2E/DX2                !
 ! A43   A(11,14,51)           118.4694         estimate D2E/DX2                !
 ! A44   A(15,14,51)           120.2232         estimate D2E/DX2                !
 ! A45   A(8,15,14)            122.5374         estimate D2E/DX2                !
 ! A46   A(8,15,52)            120.5929         estimate D2E/DX2                !
 ! A47   A(14,15,52)           116.8295         estimate D2E/DX2                !
 ! A48   A(7,16,17)            126.0218         estimate D2E/DX2                !
 ! A49   A(7,16,38)            116.8641         estimate D2E/DX2                !
 ! A50   A(17,16,38)           117.1109         estimate D2E/DX2                !
 ! A51   A(16,17,18)           122.5408         estimate D2E/DX2                !
 ! A52   A(16,17,53)           121.7678         estimate D2E/DX2                !
 ! A53   A(18,17,53)           115.6881         estimate D2E/DX2                !
 ! A54   A(17,18,19)           121.6758         estimate D2E/DX2                !
 ! A55   A(17,18,54)           116.6167         estimate D2E/DX2                !
 ! A56   A(19,18,54)           121.7049         estimate D2E/DX2                !
 ! A57   A(18,19,20)           128.3928         estimate D2E/DX2                !
 ! A58   A(18,19,37)           116.0125         estimate D2E/DX2                !
 ! A59   A(20,19,37)           115.5922         estimate D2E/DX2                !
 ! A60   A(19,20,21)           122.9665         estimate D2E/DX2                !
 ! A61   A(19,20,29)           114.6646         estimate D2E/DX2                !
 ! A62   A(21,20,29)           121.9626         estimate D2E/DX2                !
 ! A63   A(20,21,22)           124.7389         estimate D2E/DX2                !
 ! A64   A(20,21,28)           120.4656         estimate D2E/DX2                !
 ! A65   A(22,21,28)           114.4754         estimate D2E/DX2                !
 ! A66   A(21,22,23)           123.2143         estimate D2E/DX2                !
 ! A67   A(21,22,55)           119.4001         estimate D2E/DX2                !
 ! A68   A(23,22,55)           117.3178         estimate D2E/DX2                !
 ! A69   A(22,23,24)           121.6009         estimate D2E/DX2                !
 ! A70   A(22,23,56)           121.4584         estimate D2E/DX2                !
 ! A71   A(24,23,56)           116.9407         estimate D2E/DX2                !
 ! A72   A(23,24,25)           123.9494         estimate D2E/DX2                !
 ! A73   A(23,24,27)           116.1759         estimate D2E/DX2                !
 ! A74   A(25,24,27)           119.8747         estimate D2E/DX2                !
 ! A75   A(24,25,26)           120.4169         estimate D2E/DX2                !
 ! A76   A(25,26,57)           106.4207         estimate D2E/DX2                !
 ! A77   A(25,26,58)           112.9221         estimate D2E/DX2                !
 ! A78   A(25,26,59)           110.5077         estimate D2E/DX2                !
 ! A79   A(57,26,58)           110.7175         estimate D2E/DX2                !
 ! A80   A(57,26,59)           107.5103         estimate D2E/DX2                !
 ! A81   A(58,26,59)           108.6255         estimate D2E/DX2                !
 ! A82   A(24,27,28)           122.8469         estimate D2E/DX2                !
 ! A83   A(24,27,60)           117.3304         estimate D2E/DX2                !
 ! A84   A(28,27,60)           119.8226         estimate D2E/DX2                !
 ! A85   A(21,28,27)           121.6865         estimate D2E/DX2                !
 ! A86   A(21,28,61)           119.4425         estimate D2E/DX2                !
 ! A87   A(27,28,61)           118.8222         estimate D2E/DX2                !
 ! A88   A(20,29,30)           126.2071         estimate D2E/DX2                !
 ! A89   A(20,29,36)           115.8528         estimate D2E/DX2                !
 ! A90   A(30,29,36)           117.9377         estimate D2E/DX2                !
 ! A91   A(29,30,31)           120.7987         estimate D2E/DX2                !
 ! A92   A(29,30,62)           120.5121         estimate D2E/DX2                !
 ! A93   A(31,30,62)           118.6869         estimate D2E/DX2                !
 ! A94   A(30,31,32)           122.2743         estimate D2E/DX2                !
 ! A95   A(30,31,63)           117.077          estimate D2E/DX2                !
 ! A96   A(32,31,63)           120.6487         estimate D2E/DX2                !
 ! A97   A(31,32,33)           123.0368         estimate D2E/DX2                !
 ! A98   A(31,32,35)           116.6456         estimate D2E/DX2                !
 ! A99   A(33,32,35)           120.3176         estimate D2E/DX2                !
 ! A100  A(32,33,34)           120.0287         estimate D2E/DX2                !
 ! A101  A(33,34,64)           111.3764         estimate D2E/DX2                !
 ! A102  A(33,34,65)           108.5221         estimate D2E/DX2                !
 ! A103  A(33,34,66)           107.7974         estimate D2E/DX2                !
 ! A104  A(64,34,65)           111.3426         estimate D2E/DX2                !
 ! A105  A(64,34,66)           106.0582         estimate D2E/DX2                !
 ! A106  A(65,34,66)           111.7            estimate D2E/DX2                !
 ! A107  A(32,35,36)           122.2324         estimate D2E/DX2                !
 ! A108  A(32,35,67)           115.8706         estimate D2E/DX2                !
 ! A109  A(36,35,67)           121.8969         estimate D2E/DX2                !
 ! A110  A(29,36,35)           120.1111         estimate D2E/DX2                !
 ! A111  A(29,36,68)           119.1151         estimate D2E/DX2                !
 ! A112  A(35,36,68)           120.7738         estimate D2E/DX2                !
 ! A113  A(19,37,38)           122.2563         estimate D2E/DX2                !
 ! A114  A(19,37,69)           117.8537         estimate D2E/DX2                !
 ! A115  A(38,37,69)           119.89           estimate D2E/DX2                !
 ! A116  A(16,38,37)           120.4037         estimate D2E/DX2                !
 ! A117  A(16,38,70)           118.4665         estimate D2E/DX2                !
 ! A118  A(37,38,70)           121.1299         estimate D2E/DX2                !
 ! A119  A(6,39,40)            122.7057         estimate D2E/DX2                !
 ! A120  A(6,39,71)            122.6995         estimate D2E/DX2                !
 ! A121  A(40,39,71)           114.5924         estimate D2E/DX2                !
 ! A122  A(3,40,39)            120.6177         estimate D2E/DX2                !
 ! A123  A(3,40,72)            118.8147         estimate D2E/DX2                !
 ! A124  A(39,40,72)           120.5676         estimate D2E/DX2                !
 ! D1    D(41,1,2,3)           175.0505         estimate D2E/DX2                !
 ! D2    D(42,1,2,3)           -67.9014         estimate D2E/DX2                !
 ! D3    D(43,1,2,3)            54.9944         estimate D2E/DX2                !
 ! D4    D(1,2,3,4)           -180.0            estimate D2E/DX2                !
 ! D5    D(1,2,3,40)             0.0            estimate D2E/DX2                !
 ! D6    D(2,3,4,5)           -179.9902         estimate D2E/DX2                !
 ! D7    D(2,3,4,44)             0.0099         estimate D2E/DX2                !
 ! D8    D(40,3,4,5)             0.0099         estimate D2E/DX2                !
 ! D9    D(40,3,4,44)         -179.99           estimate D2E/DX2                !
 ! D10   D(2,3,40,39)          179.9995         estimate D2E/DX2                !
 ! D11   D(2,3,40,72)           -0.0005         estimate D2E/DX2                !
 ! D12   D(4,3,40,39)           -0.0006         estimate D2E/DX2                !
 ! D13   D(4,3,40,72)          179.9994         estimate D2E/DX2                !
 ! D14   D(3,4,5,6)              0.0003         estimate D2E/DX2                !
 ! D15   D(3,4,5,45)           179.9996         estimate D2E/DX2                !
 ! D16   D(44,4,5,6)          -179.9998         estimate D2E/DX2                !
 ! D17   D(44,4,5,45)           -0.0004         estimate D2E/DX2                !
 ! D18   D(4,5,6,7)           -179.3689         estimate D2E/DX2                !
 ! D19   D(4,5,6,39)            -0.0198         estimate D2E/DX2                !
 ! D20   D(45,5,6,7)             0.6318         estimate D2E/DX2                !
 ! D21   D(45,5,6,39)          179.9808         estimate D2E/DX2                !
 ! D22   D(5,6,7,8)           -134.1202         estimate D2E/DX2                !
 ! D23   D(5,6,7,16)            52.8383         estimate D2E/DX2                !
 ! D24   D(39,6,7,8)            46.6182         estimate D2E/DX2                !
 ! D25   D(39,6,7,16)         -126.4233         estimate D2E/DX2                !
 ! D26   D(5,6,39,40)            0.0296         estimate D2E/DX2                !
 ! D27   D(5,6,39,71)         -179.3863         estimate D2E/DX2                !
 ! D28   D(7,6,39,40)          179.2777         estimate D2E/DX2                !
 ! D29   D(7,6,39,71)           -0.1383         estimate D2E/DX2                !
 ! D30   D(6,7,8,9)            -53.3629         estimate D2E/DX2                !
 ! D31   D(6,7,8,15)           120.4537         estimate D2E/DX2                !
 ! D32   D(16,7,8,9)           119.1047         estimate D2E/DX2                !
 ! D33   D(16,7,8,15)          -67.0788         estimate D2E/DX2                !
 ! D34   D(6,7,16,17)         -134.0482         estimate D2E/DX2                !
 ! D35   D(6,7,16,38)           46.6264         estimate D2E/DX2                !
 ! D36   D(8,7,16,17)           52.6664         estimate D2E/DX2                !
 ! D37   D(8,7,16,38)         -126.659          estimate D2E/DX2                !
 ! D38   D(7,8,9,10)           174.1104         estimate D2E/DX2                !
 ! D39   D(7,8,9,46)            -8.7317         estimate D2E/DX2                !
 ! D40   D(15,8,9,10)           -0.0675         estimate D2E/DX2                !
 ! D41   D(15,8,9,46)          177.0904         estimate D2E/DX2                !
 ! D42   D(7,8,15,14)         -174.2723         estimate D2E/DX2                !
 ! D43   D(7,8,15,52)            3.3481         estimate D2E/DX2                !
 ! D44   D(9,8,15,14)           -0.0225         estimate D2E/DX2                !
 ! D45   D(9,8,15,52)          177.5979         estimate D2E/DX2                !
 ! D46   D(8,9,10,11)            0.1031         estimate D2E/DX2                !
 ! D47   D(8,9,10,47)         -179.8965         estimate D2E/DX2                !
 ! D48   D(46,9,10,11)        -177.1201         estimate D2E/DX2                !
 ! D49   D(46,9,10,47)           2.8803         estimate D2E/DX2                !
 ! D50   D(9,10,11,12)         179.9604         estimate D2E/DX2                !
 ! D51   D(9,10,11,14)          -0.0396         estimate D2E/DX2                !
 ! D52   D(47,10,11,12)         -0.0399         estimate D2E/DX2                !
 ! D53   D(47,10,11,14)        179.96           estimate D2E/DX2                !
 ! D54   D(10,11,12,13)          0.0            estimate D2E/DX2                !
 ! D55   D(14,11,12,13)       -180.0            estimate D2E/DX2                !
 ! D56   D(10,11,14,15)         -0.052          estimate D2E/DX2                !
 ! D57   D(10,11,14,51)        179.948          estimate D2E/DX2                !
 ! D58   D(12,11,14,15)        179.948          estimate D2E/DX2                !
 ! D59   D(12,11,14,51)         -0.0521         estimate D2E/DX2                !
 ! D60   D(11,12,13,48)         55.1654         estimate D2E/DX2                !
 ! D61   D(11,12,13,49)        -59.1662         estimate D2E/DX2                !
 ! D62   D(11,12,13,50)        174.2549         estimate D2E/DX2                !
 ! D63   D(11,14,15,8)           0.0848         estimate D2E/DX2                !
 ! D64   D(11,14,15,52)       -177.6197         estimate D2E/DX2                !
 ! D65   D(51,14,15,8)        -179.9151         estimate D2E/DX2                !
 ! D66   D(51,14,15,52)          2.3803         estimate D2E/DX2                !
 ! D67   D(7,16,17,18)        -179.2885         estimate D2E/DX2                !
 ! D68   D(7,16,17,53)           1.4            estimate D2E/DX2                !
 ! D69   D(38,16,17,18)          0.0354         estimate D2E/DX2                !
 ! D70   D(38,16,17,53)       -179.2761         estimate D2E/DX2                !
 ! D71   D(7,16,38,37)         179.3738         estimate D2E/DX2                !
 ! D72   D(7,16,38,70)          -0.626          estimate D2E/DX2                !
 ! D73   D(17,16,38,37)         -0.0133         estimate D2E/DX2                !
 ! D74   D(17,16,38,70)        179.9869         estimate D2E/DX2                !
 ! D75   D(16,17,18,19)         -0.0463         estimate D2E/DX2                !
 ! D76   D(16,17,18,54)        179.3797         estimate D2E/DX2                !
 ! D77   D(53,17,18,19)        179.3042         estimate D2E/DX2                !
 ! D78   D(53,17,18,54)         -1.2698         estimate D2E/DX2                !
 ! D79   D(17,18,19,20)       -179.3526         estimate D2E/DX2                !
 ! D80   D(17,18,19,37)          0.0307         estimate D2E/DX2                !
 ! D81   D(54,18,19,20)          1.2506         estimate D2E/DX2                !
 ! D82   D(54,18,19,37)       -179.3662         estimate D2E/DX2                !
 ! D83   D(18,19,20,21)         45.8445         estimate D2E/DX2                !
 ! D84   D(18,19,20,29)       -126.9612         estimate D2E/DX2                !
 ! D85   D(37,19,20,21)       -133.541          estimate D2E/DX2                !
 ! D86   D(37,19,20,29)         53.6534         estimate D2E/DX2                !
 ! D87   D(18,19,37,38)         -0.0091         estimate D2E/DX2                !
 ! D88   D(18,19,37,69)        179.9896         estimate D2E/DX2                !
 ! D89   D(20,19,37,38)        179.455          estimate D2E/DX2                !
 ! D90   D(20,19,37,69)         -0.5464         estimate D2E/DX2                !
 ! D91   D(19,20,21,22)        -54.0603         estimate D2E/DX2                !
 ! D92   D(19,20,21,28)        119.0754         estimate D2E/DX2                !
 ! D93   D(29,20,21,22)        118.2304         estimate D2E/DX2                !
 ! D94   D(29,20,21,28)        -68.6339         estimate D2E/DX2                !
 ! D95   D(19,20,29,30)       -134.2192         estimate D2E/DX2                !
 ! D96   D(19,20,29,36)         46.3524         estimate D2E/DX2                !
 ! D97   D(21,20,29,30)         52.895          estimate D2E/DX2                !
 ! D98   D(21,20,29,36)       -126.5334         estimate D2E/DX2                !
 ! D99   D(20,21,22,23)        173.4307         estimate D2E/DX2                !
 ! D100  D(20,21,22,55)         -9.647          estimate D2E/DX2                !
 ! D101  D(28,21,22,23)         -0.0702         estimate D2E/DX2                !
 ! D102  D(28,21,22,55)        176.8521         estimate D2E/DX2                !
 ! D103  D(20,21,28,27)       -173.8351         estimate D2E/DX2                !
 ! D104  D(20,21,28,61)          3.5924         estimate D2E/DX2                !
 ! D105  D(22,21,28,27)         -0.0301         estimate D2E/DX2                !
 ! D106  D(22,21,28,61)        177.3974         estimate D2E/DX2                !
 ! D107  D(21,22,23,24)          0.1124         estimate D2E/DX2                !
 ! D108  D(21,22,23,56)       -179.8876         estimate D2E/DX2                !
 ! D109  D(55,22,23,24)       -176.8698         estimate D2E/DX2                !
 ! D110  D(55,22,23,56)          3.1302         estimate D2E/DX2                !
 ! D111  D(22,23,24,25)        179.9539         estimate D2E/DX2                !
 ! D112  D(22,23,24,27)         -0.046          estimate D2E/DX2                !
 ! D113  D(56,23,24,25)         -0.0461         estimate D2E/DX2                !
 ! D114  D(56,23,24,27)        179.954          estimate D2E/DX2                !
 ! D115  D(23,24,25,26)          0.0002         estimate D2E/DX2                !
 ! D116  D(27,24,25,26)       -179.9998         estimate D2E/DX2                !
 ! D117  D(23,24,27,28)         -0.0543         estimate D2E/DX2                !
 ! D118  D(23,24,27,60)        179.9457         estimate D2E/DX2                !
 ! D119  D(25,24,27,28)        179.9457         estimate D2E/DX2                !
 ! D120  D(25,24,27,60)         -0.0542         estimate D2E/DX2                !
 ! D121  D(24,25,26,57)         74.4876         estimate D2E/DX2                !
 ! D122  D(24,25,26,58)        -47.1838         estimate D2E/DX2                !
 ! D123  D(24,25,26,59)       -169.0809         estimate D2E/DX2                !
 ! D124  D(24,27,28,21)          0.0949         estimate D2E/DX2                !
 ! D125  D(24,27,28,61)       -177.3481         estimate D2E/DX2                !
 ! D126  D(60,27,28,21)       -179.9052         estimate D2E/DX2                !
 ! D127  D(60,27,28,61)          2.6518         estimate D2E/DX2                !
 ! D128  D(20,29,30,31)       -179.3874         estimate D2E/DX2                !
 ! D129  D(20,29,30,62)          1.1617         estimate D2E/DX2                !
 ! D130  D(36,29,30,31)          0.0304         estimate D2E/DX2                !
 ! D131  D(36,29,30,62)       -179.4205         estimate D2E/DX2                !
 ! D132  D(20,29,36,35)        179.4572         estimate D2E/DX2                !
 ! D133  D(20,29,36,68)         -0.5427         estimate D2E/DX2                !
 ! D134  D(30,29,36,35)         -0.0208         estimate D2E/DX2                !
 ! D135  D(30,29,36,68)        179.9793         estimate D2E/DX2                !
 ! D136  D(29,30,31,32)         -0.0205         estimate D2E/DX2                !
 ! D137  D(29,30,31,63)        179.9797         estimate D2E/DX2                !
 ! D138  D(62,30,31,32)        179.4403         estimate D2E/DX2                !
 ! D139  D(62,30,31,63)         -0.5595         estimate D2E/DX2                !
 ! D140  D(30,31,32,33)        179.9994         estimate D2E/DX2                !
 ! D141  D(30,31,32,35)         -0.0006         estimate D2E/DX2                !
 ! D142  D(63,31,32,33)         -0.0008         estimate D2E/DX2                !
 ! D143  D(63,31,32,35)        179.9992         estimate D2E/DX2                !
 ! D144  D(31,32,33,34)          0.0001         estimate D2E/DX2                !
 ! D145  D(35,32,33,34)       -180.0            estimate D2E/DX2                !
 ! D146  D(31,32,35,36)          0.0103         estimate D2E/DX2                !
 ! D147  D(31,32,35,67)       -179.9897         estimate D2E/DX2                !
 ! D148  D(33,32,35,36)       -179.9897         estimate D2E/DX2                !
 ! D149  D(33,32,35,67)          0.0103         estimate D2E/DX2                !
 ! D150  D(32,33,34,64)         61.8763         estimate D2E/DX2                !
 ! D151  D(32,33,34,65)        -61.0334         estimate D2E/DX2                !
 ! D152  D(32,33,34,66)        177.8292         estimate D2E/DX2                !
 ! D153  D(32,35,36,29)          0.0002         estimate D2E/DX2                !
 ! D154  D(32,35,36,68)       -179.9999         estimate D2E/DX2                !
 ! D155  D(67,35,36,29)       -179.9997         estimate D2E/DX2                !
 ! D156  D(67,35,36,68)          0.0001         estimate D2E/DX2                !
 ! D157  D(19,37,38,16)          0.0004         estimate D2E/DX2                !
 ! D158  D(19,37,38,70)       -179.9998         estimate D2E/DX2                !
 ! D159  D(69,37,38,16)       -179.9982         estimate D2E/DX2                !
 ! D160  D(69,37,38,70)          0.0016         estimate D2E/DX2                !
 ! D161  D(6,39,40,3)           -0.0201         estimate D2E/DX2                !
 ! D162  D(6,39,40,72)         179.9799         estimate D2E/DX2                !
 ! D163  D(71,39,40,3)         179.4394         estimate D2E/DX2                !
 ! D164  D(71,39,40,72)         -0.5606         estimate D2E/DX2                !
 --------------------------------------------------------------------------------
 Trust Radius=3.00D-01 FncErr=1.00D-07 GrdErr=1.00D-06 EigMax=2.50D+02 EigMin=1.00D-04
 Number of steps in this run=    374 maximum allowed number of steps=    432.
 GradGradGradGradGradGradGradGradGradGradGradGradGradGradGradGradGradGrad

 Leave Link  103 at Wed Aug 10 17:46:50 2022, MaxMem=  6442450944 cpu:               0.5 elap:               0.0
 (Enter /mnt/gpfs3_amd/share/apps/amd/gaussian/g16-A.03/g16/l202.exe)
 Stoichiometry    C34H32N2O4
 Framework group  C1[X(C34H32N2O4)]
 Deg. of freedom   210
 Full point group                 C1      NOp   1
 Largest Abelian subgroup         C1      NOp   1
 Largest concise Abelian subgroup C1      NOp   1
                         Standard orientation:                         
 ---------------------------------------------------------------------
 Center     Atomic      Atomic             Coordinates (Angstroms)
 Number     Number       Type             X           Y           Z
 ---------------------------------------------------------------------
      1          6           0        5.274858   -3.786649    4.667474
      2          8           0        4.346005   -4.050380    3.634608
      3          6           0        4.002265   -3.085443    2.686528
      4          6           0        3.096193   -3.356684    1.686440
      5          6           0        2.722813   -2.452498    0.732941
      6          6           0        3.280516   -1.153872    0.745468
      7          7           0        2.806506   -0.285243   -0.291884
      8          6           0        3.620545    0.527318   -1.087637
      9          6           0        4.524874    1.417311   -0.560814
     10          6           0        5.398224    2.117988   -1.372953
     11          6           0        5.435593    1.990855   -2.737581
     12          8           0        6.328299    2.712774   -3.528720
     13          6           0        7.210220    3.596852   -2.864319
     14          6           0        4.534504    1.103138   -3.284628
     15          6           0        3.654966    0.392103   -2.490844
     16          6           0        1.358689   -0.200228   -0.344278
     17          6           0        0.602501   -0.277851   -1.451462
     18          6           0       -0.792675   -0.171802   -1.419201
     19          6           0       -1.458007    0.013962   -0.270662
     20          7           0       -2.882888    0.129556   -0.068419
     21          6           0       -3.815395   -0.742558   -0.665117
     22          6           0       -3.896453   -1.002021   -2.022884
     23          6           0       -4.731435   -1.956984   -2.560134
     24          6           0       -5.550374   -2.722020   -1.769951
     25          8           0       -6.400793   -3.684990   -2.253354
     26          6           0       -6.474889   -3.942587   -3.639365
     27          6           0       -5.487416   -2.481336   -0.423509
     28          6           0       -4.656519   -1.531935    0.127241
     29          6           0       -3.297433    1.314078    0.666492
     30          6           0       -4.185601    1.352211    1.679546
     31          6           0       -4.511461    2.560576    2.299933
     32          6           0       -3.955628    3.749535    1.919124
     33          8           0       -4.266158    4.952703    2.521071
     34          6           0       -5.199328    4.992630    3.584744
     35          6           0       -3.045052    3.703637    0.879759
     36          6           0       -2.708606    2.532949    0.254954
     37          6           0       -0.665997    0.096177    0.898986
     38          6           0        0.694826   -0.006980    0.866158
     39          6           0        4.166713   -0.880096    1.719794
     40          6           0        4.540153   -1.822383    2.693347
     41          1           0        5.286190   -4.689924    5.319241
     42          1           0        6.291018   -3.652427    4.253098
     43          1           0        4.915327   -2.890837    5.204200
     44          1           0        2.680767   -4.371408    1.702357
     45          1           0        1.999217   -2.719563   -0.038863
     46          1           0        4.539807    1.619971    0.492744
     47          1           0        6.089546    2.804019   -0.903583
     48          1           0        7.749022    2.967644   -2.100341
     49          1           0        6.646017    4.355829   -2.292193
     50          1           0        7.945015    4.045174   -3.563489
     51          1           0        4.527653    0.971106   -4.358855
     52          1           0        3.022196   -0.296740   -2.979792
     53          1           0        1.033035   -0.436421   -2.417189
     54          1           0       -1.297413   -0.236688   -2.353626
     55          1           0       -3.308476   -0.392254   -2.725489
     56          1           0       -4.771052   -2.139159   -3.636260
     57          1           0       -5.549433   -4.502264   -3.905512
     58          1           0       -6.562336   -3.023662   -4.243003
     59          1           0       -7.335752   -4.596836   -3.865948
     60          1           0       -6.130368   -3.077477    0.221258
     61          1           0       -4.627417   -1.426781    1.192861
     62          1           0       -4.651791    0.447764    2.032339
     63          1           0       -5.229282    2.521756    3.103668
     64          1           0       -4.845083    4.390886    4.461992
     65          1           0       -6.176500    4.623945    3.210349
     66          1           0       -5.264987    6.039110    3.937915
     67          1           0       -2.605693    4.667140    0.583955
     68          1           0       -2.002083    2.524421   -0.545843
     69          1           0       -1.171344    0.245718    1.840509
     70          1           0        1.280233    0.058269    1.768164
     71          1           0        4.630002    0.060816    1.819844
     72          1           0        5.252735   -1.566531    3.457234
 ---------------------------------------------------------------------
 Rotational constants (GHZ):           0.0844142           0.0407708           0.0380583
 Leave Link  202 at Wed Aug 10 17:46:50 2022, MaxMem=  6442450944 cpu:               0.0 elap:               0.0
 (Enter /mnt/gpfs3_amd/share/apps/amd/gaussian/g16-A.03/g16/l301.exe)
 Standard basis: def2SVP (5D, 7F)
 Ernie: Thresh=  0.10000D-02 Tol=  0.10000D-05 Strict=F.
 There are   760 symmetry adapted cartesian basis functions of A   symmetry.
 There are   720 symmetry adapted basis functions of A   symmetry.
   720 basis functions,  1224 primitive gaussians,   760 cartesian basis functions
   141 alpha electrons      141 beta electrons
       nuclear repulsion energy      4120.7683495076 Hartrees.
 IExCor=33909 DFT=T Ex+Corr=LC-wHPBE ExCW=0 ScaHFX=  1.000000
 ScaDFX=  1.000000  1.000000  1.000000  1.000000 ScalE2=  1.000000  1.000000
 IRadAn=      5 IRanWt=     -1 IRanGd=            0 ICorTp=0 IEmpDi=  4
 HFx  wShort=  0.000000 wLong=  0.175500 cFull=  0.000000 cShort=  0.000000 cLong=  1.000000
 DFx  wShort=  0.000000 wLong=  0.175500 cFull=  0.000000 cShort=  1.000000 cLong=  0.000000
 NAtoms=   72 NActive=   72 NUniq=   72 SFac= 1.00D+00 NAtFMM=   60 NAOKFM=T Big=T
 Integral buffers will be    131072 words long.
 Raffenetti 2 integral format.
 Two-electron integral symmetry is turned on.
 Leave Link  301 at Wed Aug 10 17:46:50 2022, MaxMem=  6442450944 cpu:               0.3 elap:               0.0
 (Enter /mnt/gpfs3_amd/share/apps/amd/gaussian/g16-A.03/g16/l302.exe)
 NPDir=0 NMtPBC=     1 NCelOv=     1 NCel=       1 NClECP=     1 NCelD=      1
         NCelK=      1 NCelE2=     1 NClLst=     1 CellRange=     0.0.
 One-electron integrals computed using PRISM.
 One-electron integral symmetry used in STVInt
   1 Symmetry operations used in ECPInt.
 ECPInt:  NShTT=   56616 NPrTT=  205736 LenC2=   39522 LenP2D=   90899.
 LDataN:  DoStor=T MaxTD1= 4 Len=   56
 NBasis=   720 RedAO= T EigKep=  1.58D-04  NBF=   720
 NBsUse=   720 1.00D-06 EigRej= -1.00D+00 NBFU=   720
 Precomputing XC quadrature grid using
 IXCGrd= 4 IRadAn=           5 IRanWt=          -1 IRanGd=           0 AccXCQ= 0.00D+00.
 Generated NRdTot=       0 NPtTot=           0 NUsed=           0 NTot=          32
 NSgBfM=   712   705   705   708   712 MxSgAt=    72 MxSgA2=    72.
 Leave Link  302 at Wed Aug 10 17:46:52 2022, MaxMem=  6442450944 cpu:              40.4 elap:               2.5
 (Enter /mnt/gpfs3_amd/share/apps/amd/gaussian/g16-A.03/g16/l303.exe)
 DipDrv:  MaxL=1.
 Leave Link  303 at Wed Aug 10 17:46:52 2022, MaxMem=  6442450944 cpu:               1.3 elap:               0.1
 (Enter /mnt/gpfs3_amd/share/apps/amd/gaussian/g16-A.03/g16/l401.exe)
 ExpMin= 1.22D-01 ExpMax= 2.27D+03 ExpMxC= 3.41D+02 IAcc=3 IRadAn=         5 AccDes= 0.00D+00
 Harris functional with IExCor=33909 and IRadAn=       5 diagonalized for initial guess.
 HarFok:  IExCor=33909 AccDes= 0.00D+00 IRadAn=         5 IDoV= 1 UseB2=F ITyADJ=14
 ICtDFT=  3500011 ScaDFX=  1.000000  1.000000  1.000000  1.000000
 FoFCou: FMM=F IPFlag=           0 FMFlag=      100000 FMFlg1=        2001
         NFxFlg=           0 DoJE=T BraDBF=F KetDBF=T FulRan=T
         wScrn=  0.000000 ICntrl=       500 IOpCl=  0 I1Cent=   200000004 NGrid=           0
         NMat0=    1 NMatS0=      1 NMatT0=    0 NMatD0=    1 NMtDS0=    0 NMtDT0=    0
 Petite list used in FoFCou.
 Harris En= -1695.75290397632    
 JPrj=0 DoOrth=F DoCkMO=F.
 Leave Link  401 at Wed Aug 10 17:47:02 2022, MaxMem=  6442450944 cpu:             151.4 elap:               9.5
 (Enter /mnt/gpfs3_amd/share/apps/amd/gaussian/g16-A.03/g16/l502.exe)
 Integral symmetry usage will be decided dynamically.
 Closed shell SCF:
 Using DIIS extrapolation, IDIIS=  1040.
 NGot=  6442450944 LenX=  6441275564 LenY=  6440697204
 Requested convergence on RMS density matrix=1.00D-08 within 512 cycles.
 Requested convergence on MAX density matrix=1.00D-06.
 Requested convergence on             energy=1.00D-06.
 No special actions if energy rises.
 Fock matrices will be formed incrementally for  20 cycles.
 Integral accuracy reduced to 1.0D-05 until final iterations.

 Cycle   1  Pass 0  IDiag  1:
 FoFJK:  IHMeth= 1 ICntrl=       0 DoSepK=T KAlg= 0 I1Cent=           0 FoldK=F
 IRaf=         1 NMat=       1 IRICut=       1 DoRegI=T DoRafI=F ISym2E= 0 IDoP0=0 IntGTp=1.
 FoFCou: FMM=T IPFlag=           0 FMFlag=      100000 FMFlg1=        2001
         NFxFlg=           0 DoJE=T BraDBF=F KetDBF=F FulRan=T
         wScrn=  0.000000 ICntrl=       500 IOpCl=  0 I1Cent=           0 NGrid=           0
         NMat0=    1 NMatS0=      1 NMatT0=    0 NMatD0=    1 NMtDS0=    0 NMtDT0=    0
 Symmetry not used in FoFCou.
 FMM levels:  10  Number of levels for PrismC:   9
 E= -1721.74762356538    
 DIIS: error= 1.79D-02 at cycle   1 NSaved=   1.
 NSaved= 1 IEnMin= 1 EnMin= -1721.74762356538     IErMin= 1 ErrMin= 1.79D-02
 ErrMax= 1.79D-02  0.00D+00 EMaxC= 1.00D-01 BMatC= 4.92D-01 BMatP= 4.92D-01
 IDIUse=3 WtCom= 8.21D-01 WtEn= 1.79D-01
 Coeff-Com:  0.100D+01
 Coeff-En:   0.100D+01
 Coeff:      0.100D+01
 Gap=     0.312 Goal=   None    Shift=    0.000
 GapD=    0.312 DampG=1.000 DampE=0.500 DampFc=0.5000 IDamp=-1.
 Damping current iteration by 5.00D-01
 RMSDP=2.50D-03 MaxDP=9.12D-02              OVMax= 1.02D-01

 Cycle   2  Pass 0  IDiag  1:
 RMSU=  1.15D-03    CP:  9.65D-01
 E= -1722.03049790857     Delta-E=       -0.282874343185 Rises=F Damp=T
 DIIS: error= 3.31D-03 at cycle   2 NSaved=   2.
 NSaved= 2 IEnMin= 2 EnMin= -1722.03049790857     IErMin= 2 ErrMin= 3.31D-03
 ErrMax= 3.31D-03  0.00D+00 EMaxC= 1.00D-01 BMatC= 2.52D-02 BMatP= 4.92D-01
 IDIUse=3 WtCom= 9.67D-01 WtEn= 3.31D-02
 Coeff-Com: -0.436D-01 0.104D+01
 Coeff-En:   0.000D+00 0.100D+01
 Coeff:     -0.422D-01 0.104D+01
 Gap=     0.270 Goal=   None    Shift=    0.000
 RMSDP=7.02D-04 MaxDP=3.00D-02 DE=-2.83D-01 OVMax= 7.17D-02

 Cycle   3  Pass 0  IDiag  1:
 RMSU=  6.23D-04    CP:  9.52D-01  1.23D+00
 E= -1722.28967047323     Delta-E=       -0.259172564662 Rises=F Damp=F
 DIIS: error= 4.79D-03 at cycle   3 NSaved=   3.
 NSaved= 3 IEnMin= 3 EnMin= -1722.28967047323     IErMin= 2 ErrMin= 3.31D-03
 ErrMax= 4.79D-03  0.00D+00 EMaxC= 1.00D-01 BMatC= 1.67D-02 BMatP= 2.52D-02
 IDIUse=3 WtCom= 9.52D-01 WtEn= 4.79D-02
 Coeff-Com: -0.515D-01 0.484D+00 0.568D+00
 Coeff-En:   0.000D+00 0.000D+00 0.100D+01
 Coeff:     -0.490D-01 0.461D+00 0.588D+00
 Gap=     0.270 Goal=   None    Shift=    0.000
 RMSDP=2.94D-04 MaxDP=2.34D-02 DE=-2.59D-01 OVMax= 3.29D-02

 Cycle   4  Pass 0  IDiag  1:
 RMSU=  2.25D-04    CP:  9.52D-01  1.26D+00  7.00D-01
 E= -1722.30236103693     Delta-E=       -0.012690563706 Rises=F Damp=F
 DIIS: error= 1.78D-03 at cycle   4 NSaved=   4.
 NSaved= 4 IEnMin= 4 EnMin= -1722.30236103693     IErMin= 4 ErrMin= 1.78D-03
 ErrMax= 1.78D-03  0.00D+00 EMaxC= 1.00D-01 BMatC= 2.53D-03 BMatP= 1.67D-02
 IDIUse=3 WtCom= 9.82D-01 WtEn= 1.78D-02
 Coeff-Com: -0.114D-01 0.947D-01 0.302D+00 0.615D+00
 Coeff-En:   0.000D+00 0.000D+00 0.111D+00 0.889D+00
 Coeff:     -0.112D-01 0.930D-01 0.298D+00 0.620D+00
 Gap=     0.261 Goal=   None    Shift=    0.000
 RMSDP=1.05D-04 MaxDP=7.01D-03 DE=-1.27D-02 OVMax= 9.65D-03

 Cycle   5  Pass 0  IDiag  1:
 RMSU=  6.55D-05    CP:  9.51D-01  1.27D+00  7.86D-01  7.29D-01
 E= -1722.30453680514     Delta-E=       -0.002175768203 Rises=F Damp=F
 DIIS: error= 2.43D-04 at cycle   5 NSaved=   5.
 NSaved= 5 IEnMin= 5 EnMin= -1722.30453680514     IErMin= 5 ErrMin= 2.43D-04
 ErrMax= 2.43D-04  0.00D+00 EMaxC= 1.00D-01 BMatC= 1.24D-04 BMatP= 2.53D-03
 IDIUse=3 WtCom= 9.98D-01 WtEn= 2.43D-03
 Coeff-Com: -0.114D-02 0.156D-01 0.106D+00 0.282D+00 0.598D+00
 Coeff-En:   0.000D+00 0.000D+00 0.000D+00 0.000D+00 0.100D+01
 Coeff:     -0.113D-02 0.155D-01 0.106D+00 0.281D+00 0.599D+00
 Gap=     0.261 Goal=   None    Shift=    0.000
 RMSDP=3.89D-05 MaxDP=1.60D-03 DE=-2.18D-03 OVMax= 2.60D-03

 Cycle   6  Pass 0  IDiag  1:
 RMSU=  3.67D-05    CP:  9.51D-01  1.27D+00  7.93D-01  7.78D-01  1.02D+00
 E= -1722.30466259105     Delta-E=       -0.000125785911 Rises=F Damp=F
 DIIS: error= 1.02D-04 at cycle   6 NSaved=   6.
 NSaved= 6 IEnMin= 6 EnMin= -1722.30466259105     IErMin= 6 ErrMin= 1.02D-04
 ErrMax= 1.02D-04  0.00D+00 EMaxC= 1.00D-01 BMatC= 1.77D-05 BMatP= 1.24D-04
 IDIUse=3 WtCom= 9.99D-01 WtEn= 1.02D-03
 Coeff-Com:  0.139D-02-0.457D-02 0.139D-01 0.543D-01 0.295D+00 0.640D+00
 Coeff-En:   0.000D+00 0.000D+00 0.000D+00 0.000D+00 0.000D+00 0.100D+01
 Coeff:      0.139D-02-0.457D-02 0.139D-01 0.543D-01 0.295D+00 0.640D+00
 Gap=     0.261 Goal=   None    Shift=    0.000
 RMSDP=5.40D-05 MaxDP=1.93D-03 DE=-1.26D-04 OVMax= 9.62D-04

 Cycle   7  Pass 0  IDiag  1:
 RMSU=  4.33D-05    CP:  9.51D-01  1.27D+00  8.04D-01  7.93D-01  1.25D+00
                    CP:  1.74D+00
 E= -1722.30468815053     Delta-E=       -0.000025559480 Rises=F Damp=F
 DIIS: error= 1.44D-04 at cycle   7 NSaved=   7.
 NSaved= 7 IEnMin= 7 EnMin= -1722.30468815053     IErMin= 6 ErrMin= 1.02D-04
 ErrMax= 1.44D-04  0.00D+00 EMaxC= 1.00D-01 BMatC= 4.58D-06 BMatP= 1.77D-05
 IDIUse=3 WtCom= 9.99D-01 WtEn= 1.02D-03
 Coeff-Com:  0.106D-02-0.351D-02 0.818D-02 0.325D-01 0.195D+00 0.447D+00
 Coeff-Com:  0.319D+00
 Coeff-En:   0.000D+00 0.000D+00 0.000D+00 0.000D+00 0.000D+00 0.000D+00
 Coeff-En:   0.100D+01
 Coeff:      0.106D-02-0.351D-02 0.818D-02 0.325D-01 0.195D+00 0.446D+00
 Coeff:      0.320D+00
 Gap=     0.261 Goal=   None    Shift=    0.000
 RMSDP=3.36D-05 MaxDP=1.11D-03 DE=-2.56D-05 OVMax= 1.59D-04

 Cycle   8  Pass 0  IDiag  1:
 RMSU=  1.39D-05    CP:  9.51D-01  1.27D+00  8.07D-01  8.04D-01  1.37D+00
                    CP:  2.22D+00  1.54D+00
 E= -1722.30468558385     Delta-E=        0.000002566674 Rises=F Damp=F
 DIIS: error= 1.84D-04 at cycle   8 NSaved=   8.
 NSaved= 8 IEnMin= 7 EnMin= -1722.30468815053     IErMin= 6 ErrMin= 1.02D-04
 ErrMax= 1.84D-04  0.00D+00 EMaxC= 1.00D-01 BMatC= 6.08D-06 BMatP= 4.58D-06
 IDIUse=3 WtCom= 9.99D-01 WtEn= 1.02D-03
 Rare condition: small coef for last iteration:  0.000D+00
 Coeff-Com:  0.116D-02-0.400D-02 0.722D-02 0.307D-01 0.201D+00 0.483D+00
 Coeff-Com:  0.621D+00-0.339D+00
 Coeff-En:   0.000D+00 0.000D+00 0.000D+00 0.000D+00 0.000D+00 0.000D+00
 Coeff-En:   0.000D+00 0.100D+01
 Coeff:      0.116D-02-0.400D-02 0.722D-02 0.307D-01 0.201D+00 0.483D+00
 Coeff:      0.621D+00-0.339D+00
 Gap=     0.261 Goal=   None    Shift=    0.000
 RMSDP=2.61D-05 MaxDP=8.84D-04 DE= 2.57D-06 OVMax= 4.95D-05

 Cycle   9  Pass 0  IDiag  1:
 RMSU=  1.84D-05    CP:  9.51D-01  1.27D+00  8.07D-01  8.06D-01  1.34D+00
                    CP:  1.95D+00  1.24D+00  4.31D-01
 E= -1722.30468558236     Delta-E=        0.000000001495 Rises=F Damp=F
 DIIS: error= 1.76D-04 at cycle   9 NSaved=   9.
 NSaved= 9 IEnMin= 7 EnMin= -1722.30468815053     IErMin= 6 ErrMin= 1.02D-04
 ErrMax= 1.76D-04  0.00D+00 EMaxC= 1.00D-01 BMatC= 5.55D-06 BMatP= 4.58D-06
 IDIUse=3 WtCom= 9.99D-01 WtEn= 1.02D-03
 Rare condition: small coef for last iteration:  0.000D+00
 Coeff-Com:  0.114D-02-0.394D-02 0.708D-02 0.301D-01 0.197D+00 0.475D+00
 Coeff-Com:  0.619D+00-0.393D+00 0.682D-01
 Coeff-En:   0.000D+00 0.000D+00 0.000D+00 0.000D+00 0.000D+00 0.000D+00
 Coeff-En:   0.000D+00 0.000D+00 0.100D+01
 Coeff:      0.114D-02-0.394D-02 0.708D-02 0.301D-01 0.197D+00 0.475D+00
 Coeff:      0.619D+00-0.393D+00 0.682D-01
 Gap=     0.261 Goal=   None    Shift=    0.000
 RMSDP=3.82D-06 MaxDP=1.41D-04 DE= 1.50D-09 OVMax= 7.00D-06

 Initial convergence to 1.0D-05 achieved.  Increase integral accuracy.
 Cycle  10  Pass 1  IDiag  1:
 E= -1722.30456025543     Delta-E=        0.000125326931 Rises=F Damp=F
 DIIS: error= 3.78D-04 at cycle   1 NSaved=   1.
 NSaved= 1 IEnMin= 1 EnMin= -1722.30456025543     IErMin= 1 ErrMin= 3.78D-04
 ErrMax= 3.78D-04  0.00D+00 EMaxC= 1.00D-01 BMatC= 6.45D-05 BMatP= 6.45D-05
 IDIUse=3 WtCom= 9.96D-01 WtEn= 3.78D-03
 Coeff-Com:  0.100D+01
 Coeff-En:   0.100D+01
 Coeff:      0.100D+01
 Gap=     0.261 Goal=   None    Shift=    0.000
 RMSDP=3.82D-06 MaxDP=1.41D-04 DE= 1.25D-04 OVMax= 8.89D-04

 Cycle  11  Pass 1  IDiag  1:
 RMSU=  3.79D-04    CP:  1.00D+00
 E= -1722.30462392758     Delta-E=       -0.000063672147 Rises=F Damp=F
 DIIS: error= 1.77D-05 at cycle   2 NSaved=   2.
 NSaved= 2 IEnMin= 2 EnMin= -1722.30462392758     IErMin= 2 ErrMin= 1.77D-05
 ErrMax= 1.77D-05  0.00D+00 EMaxC= 1.00D-01 BMatC= 2.48D-07 BMatP= 6.45D-05
 IDIUse=1 WtCom= 1.00D+00 WtEn= 0.00D+00
 Coeff-Com: -0.368D-01 0.104D+01
 Coeff:     -0.368D-01 0.104D+01
 Gap=     0.261 Goal=   None    Shift=    0.000
 RMSDP=2.11D-05 MaxDP=7.53D-04 DE=-6.37D-05 OVMax= 2.38D-04

 Cycle  12  Pass 1  IDiag  1:
 RMSU=  5.77D-06    CP:  1.00D+00  1.05D+00
 E= -1722.30462410041     Delta-E=       -0.000000172835 Rises=F Damp=F
 DIIS: error= 1.58D-05 at cycle   3 NSaved=   3.
 NSaved= 3 IEnMin= 3 EnMin= -1722.30462410041     IErMin= 3 ErrMin= 1.58D-05
 ErrMax= 1.58D-05  0.00D+00 EMaxC= 1.00D-01 BMatC= 2.61D-07 BMatP= 2.48D-07
 IDIUse=1 WtCom= 1.00D+00 WtEn= 0.00D+00
 Coeff-Com: -0.233D-01 0.584D+00 0.439D+00
 Coeff:     -0.233D-01 0.584D+00 0.439D+00
 Gap=     0.261 Goal=   None    Shift=    0.000
 RMSDP=8.87D-07 MaxDP=8.26D-05 DE=-1.73D-07 OVMax= 8.58D-05

 Cycle  13  Pass 1  IDiag  1:
 RMSU=  8.21D-07    CP:  1.00D+00  1.05D+00  1.02D+00
 E= -1722.30462432100     Delta-E=       -0.000000220585 Rises=F Damp=F
 DIIS: error= 1.93D-06 at cycle   4 NSaved=   4.
 NSaved= 4 IEnMin= 4 EnMin= -1722.30462432100     IErMin= 4 ErrMin= 1.93D-06
 ErrMax= 1.93D-06  0.00D+00 EMaxC= 1.00D-01 BMatC= 3.46D-09 BMatP= 2.48D-07
 IDIUse=1 WtCom= 1.00D+00 WtEn= 0.00D+00
 Coeff-Com: -0.333D-03-0.534D-02 0.710D-01 0.935D+00
 Coeff:     -0.333D-03-0.534D-02 0.710D-01 0.935D+00
 Gap=     0.261 Goal=   None    Shift=    0.000
 RMSDP=5.15D-07 MaxDP=2.12D-05 DE=-2.21D-07 OVMax= 5.05D-05

 Cycle  14  Pass 1  IDiag  1:
 RMSU=  2.40D-07    CP:  1.00D+00  1.06D+00  1.08D+00  9.79D-01
 E= -1722.30462432516     Delta-E=       -0.000000004165 Rises=F Damp=F
 DIIS: error= 1.62D-06 at cycle   5 NSaved=   5.
 NSaved= 5 IEnMin= 5 EnMin= -1722.30462432516     IErMin= 5 ErrMin= 1.62D-06
 ErrMax= 1.62D-06  0.00D+00 EMaxC= 1.00D-01 BMatC= 3.02D-09 BMatP= 3.46D-09
 IDIUse=1 WtCom= 1.00D+00 WtEn= 0.00D+00
 Coeff-Com:  0.150D-02-0.460D-01 0.485D-02 0.578D+00 0.462D+00
 Coeff:      0.150D-02-0.460D-01 0.485D-02 0.578D+00 0.462D+00
 Gap=     0.261 Goal=   None    Shift=    0.000
 RMSDP=1.22D-07 MaxDP=5.17D-06 DE=-4.16D-09 OVMax= 1.36D-05

 Cycle  15  Pass 1  IDiag  1:
 RMSU=  9.37D-08    CP:  1.00D+00  1.06D+00  1.08D+00  1.05D+00  8.70D-01
 E= -1722.30462432852     Delta-E=       -0.000000003361 Rises=F Damp=F
 DIIS: error= 3.39D-07 at cycle   6 NSaved=   6.
 NSaved= 6 IEnMin= 6 EnMin= -1722.30462432852     IErMin= 6 ErrMin= 3.39D-07
 ErrMax= 3.39D-07  0.00D+00 EMaxC= 1.00D-01 BMatC= 1.05D-10 BMatP= 3.02D-09
 IDIUse=1 WtCom= 1.00D+00 WtEn= 0.00D+00
 Coeff-Com:  0.328D-03-0.757D-02-0.174D-01-0.332D-01 0.810D-01 0.977D+00
 Coeff:      0.328D-03-0.757D-02-0.174D-01-0.332D-01 0.810D-01 0.977D+00
 Gap=     0.261 Goal=   None    Shift=    0.000
 RMSDP=5.68D-08 MaxDP=2.52D-06 DE=-3.36D-09 OVMax= 1.22D-05

 Cycle  16  Pass 1  IDiag  1:
 RMSU=  3.70D-08    CP:  1.00D+00  1.06D+00  1.08D+00  1.07D+00  1.01D+00
                    CP:  1.20D+00
 E= -1722.30462432893     Delta-E=       -0.000000000407 Rises=F Damp=F
 DIIS: error= 1.67D-07 at cycle   7 NSaved=   7.
 NSaved= 7 IEnMin= 7 EnMin= -1722.30462432893     IErMin= 7 ErrMin= 1.67D-07
 ErrMax= 1.67D-07  0.00D+00 EMaxC= 1.00D-01 BMatC= 3.37D-11 BMatP= 1.05D-10
 IDIUse=1 WtCom= 1.00D+00 WtEn= 0.00D+00
 Coeff-Com: -0.897D-04 0.395D-02-0.105D-01-0.107D+00-0.338D-01 0.481D+00
 Coeff-Com:  0.666D+00
 Coeff:     -0.897D-04 0.395D-02-0.105D-01-0.107D+00-0.338D-01 0.481D+00
 Coeff:      0.666D+00
 Gap=     0.261 Goal=   None    Shift=    0.000
 RMSDP=2.20D-08 MaxDP=8.67D-07 DE=-4.07D-10 OVMax= 5.30D-06

 Cycle  17  Pass 1  IDiag  1:
 RMSU=  1.52D-08    CP:  1.00D+00  1.06D+00  1.08D+00  1.07D+00  1.05D+00
                    CP:  1.31D+00  1.05D+00
 E= -1722.30462432900     Delta-E=       -0.000000000076 Rises=F Damp=F
 DIIS: error= 6.07D-08 at cycle   8 NSaved=   8.
 NSaved= 8 IEnMin= 8 EnMin= -1722.30462432900     IErMin= 8 ErrMin= 6.07D-08
 ErrMax= 6.07D-08  0.00D+00 EMaxC= 1.00D-01 BMatC= 7.32D-12 BMatP= 3.37D-11
 IDIUse=1 WtCom= 1.00D+00 WtEn= 0.00D+00
 Coeff-Com: -0.112D-03 0.367D-02-0.324D-02-0.571D-01-0.356D-01 0.926D-01
 Coeff-Com:  0.368D+00 0.632D+00
 Coeff:     -0.112D-03 0.367D-02-0.324D-02-0.571D-01-0.356D-01 0.926D-01
 Coeff:      0.368D+00 0.632D+00
 Gap=     0.261 Goal=   None    Shift=    0.000
 RMSDP=9.35D-09 MaxDP=3.67D-07 DE=-7.64D-11 OVMax= 1.96D-06

 SCF Done:  E(RLC-wHPBE) =  -1722.30462433     A.U. after   17 cycles
            NFock= 17  Conv=0.94D-08     -V/T= 2.0097
 KE= 1.705709103772D+03 PE=-1.224440497535D+04 EE= 4.695622897741D+03
 Leave Link  502 at Wed Aug 10 17:52:53 2022, MaxMem=  6442450944 cpu:            5406.4 elap:             351.6
 (Enter /mnt/gpfs3_amd/share/apps/amd/gaussian/g16-A.03/g16/l601.exe)
 Copying SCF densities to generalized density rwf, IOpCl= 0 IROHF=0.

 **********************************************************************

            Population analysis using the SCF density.

 **********************************************************************

 Orbital symmetries:
       Occupied  (A) (A) (A) (A) (A) (A) (A) (A) (A) (A) (A) (A)
                 (A) (A) (A) (A) (A) (A) (A) (A) (A) (A) (A) (A)
                 (A) (A) (A) (A) (A) (A) (A) (A) (A) (A) (A) (A)
                 (A) (A) (A) (A) (A) (A) (A) (A) (A) (A) (A) (A)
                 (A) (A) (A) (A) (A) (A) (A) (A) (A) (A) (A) (A)
                 (A) (A) (A) (A) (A) (A) (A) (A) (A) (A) (A) (A)
                 (A) (A) (A) (A) (A) (A) (A) (A) (A) (A) (A) (A)
                 (A) (A) (A) (A) (A) (A) (A) (A) (A) (A) (A) (A)
                 (A) (A) (A) (A) (A) (A) (A) (A) (A) (A) (A) (A)
                 (A) (A) (A) (A) (A) (A) (A) (A) (A) (A) (A) (A)
                 (A) (A) (A) (A) (A) (A) (A) (A) (A) (A) (A) (A)
                 (A) (A) (A) (A) (A) (A) (A) (A) (A)
       Virtual   (A) (A) (A) (A) (A) (A) (A) (A) (A) (A) (A) (A)
                 (A) (A) (A) (A) (A) (A) (A) (A) (A) (A) (A) (A)
                 (A) (A) (A) (A) (A) (A) (A) (A) (A) (A) (A) (A)
                 (A) (A) (A) (A) (A) (A) (A) (A) (A) (A) (A) (A)
                 (A) (A) (A) (A) (A) (A) (A) (A) (A) (A) (A) (A)
                 (A) (A) (A) (A) (A) (A) (A) (A) (A) (A) (A) (A)
                 (A) (A) (A) (A) (A) (A) (A) (A) (A) (A) (A) (A)
                 (A) (A) (A) (A) (A) (A) (A) (A) (A) (A) (A) (A)
                 (A) (A) (A) (A) (A) (A) (A) (A) (A) (A) (A) (A)
                 (A) (A) (A) (A) (A) (A) (A) (A) (A) (A) (A) (A)
                 (A) (A) (A) (A) (A) (A) (A) (A) (A) (A) (A) (A)
                 (A) (A) (A) (A) (A) (A) (A) (A) (A) (A) (A) (A)
                 (A) (A) (A) (A) (A) (A) (A) (A) (A) (A) (A) (A)
                 (A) (A) (A) (A) (A) (A) (A) (A) (A) (A) (A) (A)
                 (A) (A) (A) (A) (A) (A) (A) (A) (A) (A) (A) (A)
                 (A) (A) (A) (A) (A) (A) (A) (A) (A) (A) (A) (A)
                 (A) (A) (A) (A) (A) (A) (A) (A) (A) (A) (A) (A)
                 (A) (A) (A) (A) (A) (A) (A) (A) (A) (A) (A) (A)
                 (A) (A) (A) (A) (A) (A) (A) (A) (A) (A) (A) (A)
                 (A) (A) (A) (A) (A) (A) (A) (A) (A) (A) (A) (A)
                 (A) (A) (A) (A) (A) (A) (A) (A) (A) (A) (A) (A)
                 (A) (A) (A) (A) (A) (A) (A) (A) (A) (A) (A) (A)
                 (A) (A) (A) (A) (A) (A) (A) (A) (A) (A) (A) (A)
                 (A) (A) (A) (A) (A) (A) (A) (A) (A) (A) (A) (A)
                 (A) (A) (A) (A) (A) (A) (A) (A) (A) (A) (A) (A)
                 (A) (A) (A) (A) (A) (A) (A) (A) (A) (A) (A) (A)
                 (A) (A) (A) (A) (A) (A) (A) (A) (A) (A) (A) (A)
                 (A) (A) (A) (A) (A) (A) (A) (A) (A) (A) (A) (A)
                 (A) (A) (A) (A) (A) (A) (A) (A) (A) (A) (A) (A)
                 (A) (A) (A) (A) (A) (A) (A) (A) (A) (A) (A) (A)
                 (A) (A) (A) (A) (A) (A) (A) (A) (A) (A) (A) (A)
                 (A) (A) (A) (A) (A) (A) (A) (A) (A) (A) (A) (A)
                 (A) (A) (A) (A) (A) (A) (A) (A) (A) (A) (A) (A)
                 (A) (A) (A) (A) (A) (A) (A) (A) (A) (A) (A) (A)
                 (A) (A) (A) (A) (A) (A) (A) (A) (A) (A) (A) (A)
                 (A) (A) (A) (A) (A) (A) (A) (A) (A) (A) (A) (A)
                 (A) (A) (A) (A) (A) (A) (A) (A) (A) (A) (A) (A)
                 (A) (A) (A) (A) (A) (A) (A) (A) (A) (A) (A) (A)
                 (A) (A) (A) (A) (A) (A) (A) (A) (A) (A) (A) (A)
                 (A) (A) (A) (A) (A) (A) (A) (A) (A) (A) (A) (A)
                 (A) (A) (A) (A) (A) (A) (A) (A) (A) (A) (A) (A)
                 (A) (A) (A) (A) (A) (A) (A) (A) (A) (A) (A) (A)
                 (A) (A) (A) (A) (A) (A) (A) (A) (A) (A) (A) (A)
                 (A) (A) (A) (A) (A) (A) (A) (A) (A) (A) (A) (A)
                 (A) (A) (A) (A) (A) (A) (A) (A) (A) (A) (A) (A)
                 (A) (A) (A) (A) (A) (A) (A) (A) (A) (A) (A) (A)
                 (A) (A) (A) (A) (A) (A) (A) (A) (A) (A) (A) (A)
                 (A) (A) (A) (A) (A) (A) (A) (A) (A) (A) (A) (A)
                 (A) (A) (A)
 The electronic state is 1-A.
 Alpha  occ. eigenvalues --  -18.88349 -18.88286 -18.88078 -18.87696 -14.10937
 Alpha  occ. eigenvalues --  -14.10898 -10.05367 -10.05302 -10.05248 -10.05219
 Alpha  occ. eigenvalues --  -10.04645 -10.04538 -10.04435 -10.04428 -10.02506
 Alpha  occ. eigenvalues --  -10.02419 -10.02408 -10.02381 -10.02355 -10.02228
 Alpha  occ. eigenvalues --   -9.99371  -9.99150  -9.99135  -9.99068  -9.99063
 Alpha  occ. eigenvalues --   -9.99045  -9.98965  -9.98964  -9.98901  -9.98890
 Alpha  occ. eigenvalues --   -9.98879  -9.98828  -9.98779  -9.98762  -9.98743
 Alpha  occ. eigenvalues --   -9.98652  -9.98583  -9.98493  -9.98486  -9.98469
 Alpha  occ. eigenvalues --   -1.06192  -1.05618  -1.05582  -1.04950  -0.96434
 Alpha  occ. eigenvalues --   -0.95820  -0.88120  -0.87971  -0.87888  -0.86645
 Alpha  occ. eigenvalues --   -0.85466  -0.79046  -0.78954  -0.78674  -0.77567
 Alpha  occ. eigenvalues --   -0.77153  -0.77060  -0.76684  -0.76461  -0.75916
 Alpha  occ. eigenvalues --   -0.74813  -0.72670  -0.72434  -0.71365  -0.70083
 Alpha  occ. eigenvalues --   -0.65892  -0.65807  -0.65182  -0.64513  -0.63979
 Alpha  occ. eigenvalues --   -0.63715  -0.63132  -0.62661  -0.61127  -0.60578
 Alpha  occ. eigenvalues --   -0.58504  -0.58249  -0.58227  -0.57935  -0.57070
 Alpha  occ. eigenvalues --   -0.55541  -0.55356  -0.54911  -0.53450  -0.52636
 Alpha  occ. eigenvalues --   -0.52094  -0.52013  -0.51246  -0.50973  -0.50936
 Alpha  occ. eigenvalues --   -0.50662  -0.50414  -0.49574  -0.49159  -0.48807
 Alpha  occ. eigenvalues --   -0.48380  -0.47976  -0.47497  -0.46988  -0.46909
 Alpha  occ. eigenvalues --   -0.46834  -0.46432  -0.46208  -0.45833  -0.45582
 Alpha  occ. eigenvalues --   -0.45415  -0.45184  -0.45153  -0.44289  -0.43971
 Alpha  occ. eigenvalues --   -0.43561  -0.43378  -0.42992  -0.42785  -0.42677
 Alpha  occ. eigenvalues --   -0.42077  -0.40918  -0.40504  -0.39633  -0.39610
 Alpha  occ. eigenvalues --   -0.38385  -0.37873  -0.37557  -0.36775  -0.36635
 Alpha  occ. eigenvalues --   -0.36374  -0.36109  -0.35849  -0.35455  -0.34170
 Alpha  occ. eigenvalues --   -0.31706  -0.31487  -0.31220  -0.30963  -0.30927
 Alpha  occ. eigenvalues --   -0.30480  -0.29518  -0.27685  -0.27398  -0.24854
 Alpha  occ. eigenvalues --   -0.22979
 Alpha virt. eigenvalues --    0.03143   0.03926   0.04598   0.05001   0.05139
 Alpha virt. eigenvalues --    0.05443   0.05849   0.06052   0.07021   0.08067
 Alpha virt. eigenvalues --    0.10960   0.11433   0.12296   0.12491   0.12894
 Alpha virt. eigenvalues --    0.13260   0.13779   0.14494   0.14874   0.15372
 Alpha virt. eigenvalues --    0.15486   0.16605   0.16804   0.17061   0.17124
 Alpha virt. eigenvalues --    0.17388   0.17549   0.17634   0.17820   0.18240
 Alpha virt. eigenvalues --    0.18664   0.18761   0.18841   0.18872   0.18967
 Alpha virt. eigenvalues --    0.19614   0.19926   0.20112   0.20610   0.20704
 Alpha virt. eigenvalues --    0.20936   0.21224   0.21554   0.21836   0.22123
 Alpha virt. eigenvalues --    0.22470   0.23033   0.23201   0.24249   0.25245
 Alpha virt. eigenvalues --    0.27512   0.27736   0.27901   0.28416   0.29738
 Alpha virt. eigenvalues --    0.29984   0.30105   0.30466   0.30921   0.31198
 Alpha virt. eigenvalues --    0.31377   0.32495   0.34189   0.34421   0.34630
 Alpha virt. eigenvalues --    0.34833   0.35105   0.35711   0.36242   0.36696
 Alpha virt. eigenvalues --    0.37490   0.38088   0.38548   0.38821   0.39030
 Alpha virt. eigenvalues --    0.39304   0.39659   0.39919   0.40560   0.40794
 Alpha virt. eigenvalues --    0.41450   0.42036   0.42147   0.42589   0.42715
 Alpha virt. eigenvalues --    0.44008   0.44629   0.44845   0.45718   0.46181
 Alpha virt. eigenvalues --    0.46741   0.47036   0.47468   0.47940   0.48448
 Alpha virt. eigenvalues --    0.48741   0.49187   0.49224   0.49338   0.49892
 Alpha virt. eigenvalues --    0.49985   0.50360   0.50491   0.50637   0.51365
 Alpha virt. eigenvalues --    0.51772   0.52003   0.52168   0.52384   0.52688
 Alpha virt. eigenvalues --    0.52947   0.53197   0.53251   0.53429   0.53873
 Alpha virt. eigenvalues --    0.54003   0.54197   0.54435   0.55085   0.55210
 Alpha virt. eigenvalues --    0.55332   0.56038   0.56427   0.56659   0.56817
 Alpha virt. eigenvalues --    0.57094   0.57879   0.58296   0.58538   0.58958
 Alpha virt. eigenvalues --    0.60031   0.60269   0.60930   0.60995   0.61354
 Alpha virt. eigenvalues --    0.61626   0.62473   0.62557   0.63115   0.63924
 Alpha virt. eigenvalues --    0.64153   0.64441   0.65131   0.65376   0.65626
 Alpha virt. eigenvalues --    0.65802   0.65838   0.66075   0.66415   0.66618
[...]
                 (A) (A) (A) (A) (A) (A) (A) (A) (A) (A) (A) (A)
                 (A) (A) (A) (A) (A) (A) (A) (A) (A) (A) (A) (A)
                 (A) (A) (A) (A) (A) (A) (A) (A) (A) (A) (A) (A)
                 (A) (A) (A)
 The electronic state is 1-A.
 Alpha  occ. eigenvalues --  -18.88607 -18.88586 -18.88543 -18.88487 -14.11774
 Alpha  occ. eigenvalues --  -14.11718 -10.05250 -10.05234 -10.05187 -10.05133
 Alpha  occ. eigenvalues --  -10.05076 -10.05056 -10.05007 -10.04952 -10.02870
 Alpha  occ. eigenvalues --  -10.02857 -10.02840 -10.02809 -10.02805 -10.02777
 Alpha  occ. eigenvalues --   -9.99744  -9.99732  -9.99688  -9.99681  -9.99679
 Alpha  occ. eigenvalues --   -9.99667  -9.99640  -9.99630  -9.99627  -9.99585
 Alpha  occ. eigenvalues --   -9.99576  -9.99552  -9.99364  -9.99335  -9.99292
 Alpha  occ. eigenvalues --   -9.99249  -9.99170  -9.99158  -9.99153  -9.99141
 Alpha  occ. eigenvalues --   -1.06665  -1.06646  -1.06599  -1.06545  -0.96922
 Alpha  occ. eigenvalues --   -0.96681  -0.86780  -0.86736  -0.86696  -0.85606
 Alpha  occ. eigenvalues --   -0.84287  -0.78479  -0.78424  -0.78309  -0.77189
 Alpha  occ. eigenvalues --   -0.76806  -0.76638  -0.76341  -0.75855  -0.75738
 Alpha  occ. eigenvalues --   -0.74584  -0.72448  -0.72236  -0.71191  -0.69141
 Alpha  occ. eigenvalues --   -0.65591  -0.65379  -0.64633  -0.64220  -0.63686
 Alpha  occ. eigenvalues --   -0.63120  -0.62754  -0.61979  -0.60699  -0.59590
 Alpha  occ. eigenvalues --   -0.58014  -0.57772  -0.57644  -0.57622  -0.56863
 Alpha  occ. eigenvalues --   -0.55774  -0.55583  -0.55035  -0.53000  -0.52658
 Alpha  occ. eigenvalues --   -0.51944  -0.51445  -0.51034  -0.51017  -0.50970
 Alpha  occ. eigenvalues --   -0.50915  -0.49544  -0.48500  -0.48486  -0.48393
 Alpha  occ. eigenvalues --   -0.48252  -0.47541  -0.46767  -0.46604  -0.46462
 Alpha  occ. eigenvalues --   -0.46362  -0.46142  -0.45984  -0.45724  -0.45465
 Alpha  occ. eigenvalues --   -0.45438  -0.45417  -0.44518  -0.43343  -0.43040
 Alpha  occ. eigenvalues --   -0.42873  -0.42836  -0.42774  -0.42569  -0.42378
 Alpha  occ. eigenvalues --   -0.42109  -0.40687  -0.40507  -0.39969  -0.39722
 Alpha  occ. eigenvalues --   -0.38293  -0.38226  -0.37943  -0.37406  -0.37254
 Alpha  occ. eigenvalues --   -0.36747  -0.36667  -0.36629  -0.36538  -0.35043
 Alpha  occ. eigenvalues --   -0.32060  -0.31667  -0.31316  -0.30886  -0.30689
 Alpha  occ. eigenvalues --   -0.30282  -0.29075  -0.28010  -0.27804  -0.23749
 Alpha  occ. eigenvalues --   -0.21045
 Alpha virt. eigenvalues --    0.02737   0.03362   0.03687   0.04429   0.04574
 Alpha virt. eigenvalues --    0.05008   0.05168   0.05811   0.07493   0.09905
 Alpha virt. eigenvalues --    0.11865   0.12084   0.12166   0.12256   0.13341
 Alpha virt. eigenvalues --    0.13997   0.14024   0.14177   0.14209   0.16054
 Alpha virt. eigenvalues --    0.16184   0.16403   0.16466   0.16780   0.17593
 Alpha virt. eigenvalues --    0.17734   0.17770   0.17886   0.18099   0.18155
 Alpha virt. eigenvalues --    0.18231   0.18303   0.18759   0.18798   0.18864
 Alpha virt. eigenvalues --    0.18912   0.19136   0.19187   0.19423   0.19716
 Alpha virt. eigenvalues --    0.19784   0.20218   0.20962   0.21294   0.21467
 Alpha virt. eigenvalues --    0.21743   0.22099   0.22320   0.22441   0.22760
 Alpha virt. eigenvalues --    0.23267   0.23979   0.25062   0.28464   0.28629
 Alpha virt. eigenvalues --    0.29001   0.29195   0.29750   0.29838   0.30296
 Alpha virt. eigenvalues --    0.30430   0.31430   0.32338   0.32922   0.33139
 Alpha virt. eigenvalues --    0.33382   0.34567   0.34917   0.35905   0.36491
 Alpha virt. eigenvalues --    0.36932   0.37582   0.37952   0.38557   0.38667
 Alpha virt. eigenvalues --    0.39146   0.39221   0.39820   0.39920   0.40404
 Alpha virt. eigenvalues --    0.40864   0.41510   0.41811   0.41964   0.43633
 Alpha virt. eigenvalues --    0.44178   0.44830   0.44861   0.46255   0.46312
 Alpha virt. eigenvalues --    0.46757   0.46805   0.47511   0.47590   0.47961
 Alpha virt. eigenvalues --    0.48161   0.49091   0.49240   0.49766   0.49872
 Alpha virt. eigenvalues --    0.49991   0.50032   0.50159   0.50345   0.50461
 Alpha virt. eigenvalues --    0.50918   0.50949   0.51391   0.51723   0.51993
 Alpha virt. eigenvalues --    0.52413   0.52602   0.53106   0.53227   0.53373
 Alpha virt. eigenvalues --    0.53447   0.53840   0.54018   0.54228   0.54452
 Alpha virt. eigenvalues --    0.54716   0.54895   0.55311   0.55460   0.55590
 Alpha virt. eigenvalues --    0.56925   0.57002   0.57149   0.57358   0.58243
 Alpha virt. eigenvalues --    0.59195   0.59667   0.60198   0.61006   0.61460
 Alpha virt. eigenvalues --    0.62057   0.62468   0.62922   0.62966   0.63147
 Alpha virt. eigenvalues --    0.63254   0.63458   0.63680   0.63897   0.65020
 Alpha virt. eigenvalues --    0.65449   0.65676   0.65839   0.66656   0.66779
 Alpha virt. eigenvalues --    0.66950   0.66989   0.67147   0.67250   0.67417
 Alpha virt. eigenvalues --    0.67544   0.68144   0.68225   0.68520   0.68715
 Alpha virt. eigenvalues --    0.69374   0.69431   0.69669   0.69742   0.70405
 Alpha virt. eigenvalues --    0.70728   0.70829   0.70962   0.71126   0.71213
 Alpha virt. eigenvalues --    0.71269   0.71413   0.71564   0.71941   0.72106
 Alpha virt. eigenvalues --    0.72271   0.72574   0.73350   0.73734   0.74255
 Alpha virt. eigenvalues --    0.74451   0.74599   0.74727   0.75660   0.75900
 Alpha virt. eigenvalues --    0.76292   0.76449   0.76924   0.77413   0.77754
 Alpha virt. eigenvalues --    0.77967   0.78266   0.78949   0.79058   0.79189
 Alpha virt. eigenvalues --    0.79287   0.80662   0.80746   0.81086   0.81179
 Alpha virt. eigenvalues --    0.81954   0.82288   0.83274   0.84155   0.84710
 Alpha virt. eigenvalues --    0.85095   0.85810   0.86423   0.86906   0.87084
 Alpha virt. eigenvalues --    0.87186   0.87450   0.87488   0.88319   0.89024
 Alpha virt. eigenvalues --    0.90055   0.90577   0.90869   0.91976   0.93317
 Alpha virt. eigenvalues --    0.94034   0.95621   0.95737   0.96199   0.97508
 Alpha virt. eigenvalues --    0.97937   0.99391   1.00179   1.01517   1.01949
 Alpha virt. eigenvalues --    1.02540   1.03507   1.04383   1.04881   1.05270
 Alpha virt. eigenvalues --    1.05349   1.05570   1.06355   1.06930   1.07305
 Alpha virt. eigenvalues --    1.07866   1.08145   1.08801   1.12594   1.13596
 Alpha virt. eigenvalues --    1.14258   1.14479   1.14765   1.15409   1.15574
 Alpha virt. eigenvalues --    1.15856   1.16967   1.17735   1.19718   1.20394
 Alpha virt. eigenvalues --    1.21321   1.22118   1.23250   1.23695   1.24016
 Alpha virt. eigenvalues --    1.24405   1.25004   1.25472   1.25868   1.26417
 Alpha virt. eigenvalues --    1.26861   1.27014   1.27214   1.27430   1.27880
 Alpha virt. eigenvalues --    1.28277   1.28910   1.29117   1.29191   1.29667
 Alpha virt. eigenvalues --    1.30155   1.30446   1.31011   1.31175   1.31555
 Alpha virt. eigenvalues --    1.31919   1.32309   1.32670   1.32847   1.33884
 Alpha virt. eigenvalues --    1.34305   1.34950   1.35344   1.36149   1.36973
 Alpha virt. eigenvalues --    1.38147   1.39177   1.40123   1.40764   1.44937
 Alpha virt. eigenvalues --    1.45997   1.46748   1.47951   1.49794   1.50075
 Alpha virt. eigenvalues --    1.50113   1.50458   1.50689   1.51752   1.53409
 Alpha virt. eigenvalues --    1.53531   1.53617   1.53645   1.53715   1.54185
 Alpha virt. eigenvalues --    1.55864   1.56263   1.56369   1.56522   1.58717
 Alpha virt. eigenvalues --    1.63183   1.64100   1.65407   1.66526   1.66736
 Alpha virt. eigenvalues --    1.67594   1.67755   1.68513   1.68619   1.69676
 Alpha virt. eigenvalues --    1.71346   1.71634   1.71867   1.71969   1.72254
 Alpha virt. eigenvalues --    1.72325   1.72558   1.72782   1.72985   1.73093
 Alpha virt. eigenvalues --    1.73261   1.73486   1.73720   1.74170   1.75818
 Alpha virt. eigenvalues --    1.76206   1.76429   1.76757   1.76894   1.77064
 Alpha virt. eigenvalues --    1.77448   1.77764   1.78042   1.79083   1.79171
 Alpha virt. eigenvalues --    1.79227   1.79684   1.79923   1.80061   1.80209
 Alpha virt. eigenvalues --    1.80486   1.80704   1.81278   1.81492   1.81777
 Alpha virt. eigenvalues --    1.82014   1.82663   1.83416   1.83621   1.83857
 Alpha virt. eigenvalues --    1.84137   1.84816   1.85312   1.85736   1.85745
 Alpha virt. eigenvalues --    1.86142   1.86647   1.86871   1.87123   1.87445
 Alpha virt. eigenvalues --    1.88070   1.88441   1.88721   1.88906   1.89115
 Alpha virt. eigenvalues --    1.89181   1.89453   1.89620   1.90246   1.90616
 Alpha virt. eigenvalues --    1.90662   1.90989   1.91639   1.91684   1.92529
 Alpha virt. eigenvalues --    1.94126   1.94789   1.95272   1.95494   1.95742
 Alpha virt. eigenvalues --    1.96754   1.96979   1.97357   1.97595   1.98370
 Alpha virt. eigenvalues --    1.99590   2.00262   2.00432   2.00538   2.00894
 Alpha virt. eigenvalues --    2.01994   2.03823   2.04071   2.04582   2.05793
 Alpha virt. eigenvalues --    2.07341   2.09308   2.10296   2.10523   2.11121
 Alpha virt. eigenvalues --    2.11643   2.11864   2.12549   2.13060   2.14941
 Alpha virt. eigenvalues --    2.15926   2.15948   2.16134   2.16391   2.16712
 Alpha virt. eigenvalues --    2.17033   2.17531   2.18126   2.18854   2.18944
 Alpha virt. eigenvalues --    2.19223   2.19626   2.19692   2.20092   2.21611
 Alpha virt. eigenvalues --    2.21836   2.22040   2.22129   2.22817   2.23052
 Alpha virt. eigenvalues --    2.23382   2.24060   2.24232   2.25453   2.27110
 Alpha virt. eigenvalues --    2.27499   2.28074   2.28481   2.28866   2.29025
 Alpha virt. eigenvalues --    2.29632   2.29741   2.30352   2.30953   2.32240
 Alpha virt. eigenvalues --    2.32374   2.32568   2.32731   2.32941   2.34127
 Alpha virt. eigenvalues --    2.34264   2.35372   2.35824   2.35940   2.35969
 Alpha virt. eigenvalues --    2.36346   2.36484   2.36878   2.37173   2.37298
 Alpha virt. eigenvalues --    2.38218   2.38359   2.39041   2.39417   2.39627
 Alpha virt. eigenvalues --    2.41418   2.42705   2.43690   2.44376   2.45049
 Alpha virt. eigenvalues --    2.47081   2.47547   2.57444   2.57762   2.59122
 Alpha virt. eigenvalues --    2.59667   2.59728   2.60310   2.60523   2.60661
 Alpha virt. eigenvalues --    2.62222   2.62668   2.62784   2.62852   2.63057
 Alpha virt. eigenvalues --    2.63778   2.64081   2.64392   2.64534   2.64630
 Alpha virt. eigenvalues --    2.65012   2.65662   2.66281   2.66883   2.69058
 Alpha virt. eigenvalues --    2.69672   2.71381   2.71885   2.72289   2.74219
 Alpha virt. eigenvalues --    2.74479   2.74601   2.74640   2.75663   2.79584
 Alpha virt. eigenvalues --    2.79639   2.79651   2.79725   2.80741   2.82687
 Alpha virt. eigenvalues --    2.83821   2.84597   2.85057   2.85290   2.85744
 Alpha virt. eigenvalues --    2.86462   2.86639   2.86786   2.87507   2.87689
 Alpha virt. eigenvalues --    2.88070   2.88916   2.88960   2.88998   2.89080
 Alpha virt. eigenvalues --    2.89543   2.90402   2.90844   2.90970   2.91293
 Alpha virt. eigenvalues --    2.91939   2.93395   2.96997   2.99742   3.00363
 Alpha virt. eigenvalues --    3.01898   3.03146   3.04031   3.05463   3.07985
 Alpha virt. eigenvalues --    3.08014   3.08051   3.08106   3.10339   3.11104
 Alpha virt. eigenvalues --    3.11342   3.11457   3.14470   3.14836   3.15940
 Alpha virt. eigenvalues --    3.16368   3.18262   3.25605   3.27850   3.31705
 Alpha virt. eigenvalues --    3.33431   3.40499   3.41346   3.43838   3.45229
 Alpha virt. eigenvalues --    3.48040   3.48464   3.48610   3.49136   3.62525
 Alpha virt. eigenvalues --    3.69133   3.69527   3.70281   3.70392
          Condensed to atoms (all electrons):
 Mulliken charges:
               1
     1  C    0.115290
     2  O   -0.272611
     3  C    0.204809
     4  C   -0.037499
     5  C   -0.013028
     6  C    0.091932
     7  N   -0.179962
     8  C    0.090630
     9  C   -0.018856
    10  C   -0.107170
    11  C    0.204706
    12  O   -0.272651
    13  C    0.115245
    14  C   -0.037049
    15  C   -0.009316
    16  C    0.117928
    17  C   -0.033807
    18  C   -0.036866
    19  C    0.119624
    20  N   -0.180044
    21  C    0.090392
    22  C   -0.015243
    23  C   -0.106285
    24  C    0.204724
    25  O   -0.272406
    26  C    0.115359
    27  C   -0.037625
    28  C   -0.012880
    29  C    0.090232
    30  C   -0.014828
    31  C   -0.106213
    32  C    0.204740
    33  O   -0.272616
    34  C    0.115252
    35  C   -0.037728
    36  C   -0.012569
    37  C   -0.036452
    38  C   -0.036106
    39  C   -0.017401
    40  C   -0.105903
    41  H    0.046594
    42  H    0.034560
    43  H    0.034555
    44  H   -0.006481
    45  H    0.003792
    46  H    0.001665
    47  H   -0.015200
    48  H    0.034321
    49  H    0.034828
    50  H    0.046622
    51  H   -0.006734
    52  H    0.003435
    53  H    0.001332
    54  H    0.001499
    55  H    0.000914
    56  H   -0.015468
    57  H    0.034761
    58  H    0.033976
    59  H    0.046860
    60  H   -0.006126
    61  H    0.004164
    62  H    0.001385
    63  H   -0.015221
    64  H    0.035079
    65  H    0.034020
    66  H    0.046737
    67  H   -0.006798
    68  H    0.003106
    69  H    0.001819
    70  H    0.001926
    71  H    0.001558
    72  H   -0.015229
 Sum of Mulliken charges =  -0.00000
 Mulliken charges with hydrogens summed into heavy atoms:
               1
     1  C    0.230998
     2  O   -0.272611
     3  C    0.204809
     4  C   -0.043980
     5  C   -0.009236
     6  C    0.091932
     7  N   -0.179962
     8  C    0.090630
     9  C   -0.017191
    10  C   -0.122371
    11  C    0.204706
    12  O   -0.272651
    13  C    0.231016
    14  C   -0.043784
    15  C   -0.005882
    16  C    0.117928
    17  C   -0.032475
    18  C   -0.035367
    19  C    0.119624
    20  N   -0.180044
    21  C    0.090392
    22  C   -0.014329
    23  C   -0.121753
    24  C    0.204724
    25  O   -0.272406
    26  C    0.230956
    27  C   -0.043751
    28  C   -0.008717
    29  C    0.090232
    30  C   -0.013443
    31  C   -0.121434
    32  C    0.204740
    33  O   -0.272616
    34  C    0.231089
    35  C   -0.044525
    36  C   -0.009462
    37  C   -0.034633
    38  C   -0.034181
    39  C   -0.015842
    40  C   -0.121133
 Electronic spatial extent (au):  <R**2>=          32085.8782
 Charge=              0.0000 electrons
 Dipole moment (field-independent basis, Debye):
    X=             -1.4274    Y=              0.1610    Z=             -1.7434  Tot=              2.2589
 Quadrupole moment (field-independent basis, Debye-Ang):
   XX=           -187.6112   YY=           -211.1739   ZZ=           -227.5356
   XY=              7.3770   XZ=             -5.9410   YZ=              6.1981
 Traceless Quadrupole moment (field-independent basis, Debye-Ang):
   XX=             21.1624   YY=             -2.4004   ZZ=            -18.7620
   XY=              7.3770   XZ=             -5.9410   YZ=              6.1981
 Octapole moment (field-independent basis, Debye-Ang**2):
  XXX=           -156.2777  YYY=             11.0426  ZZZ=            -49.2358  XYY=            -36.9063
  XXY=             91.9054  XXZ=             -9.4238  XZZ=             45.7048  YZZ=            -49.1226
  YYZ=            -39.1134  XYZ=             80.0796
 Hexadecapole moment (field-independent basis, Debye-Ang**3):
 XXXX=         -24603.9624 YYYY=          -8804.8145 ZZZZ=          -5462.0879 XXXY=            869.3279
 XXXZ=            119.2161 YYYX=            132.1875 YYYZ=            110.1246 ZZZX=           -256.0541
 ZZZY=            209.2589 XXYY=          -4672.4236 XXZZ=          -5417.9868 YYZZ=          -2269.3476
 XXYZ=            -95.5892 YYXZ=           -101.4001 ZZXY=           -240.0198
 N-N= 4.097518761767D+03 E-N=-1.219632689495D+04  KE= 1.703611582856D+03
 No NMR shielding tensors so no spin-rotation constants.
 Leave Link  601 at Wed Aug 10 19:48:00 2022, MaxMem=  6442450944 cpu:              18.9 elap:               1.4
 (Enter /mnt/gpfs3_amd/share/apps/amd/gaussian/g16-A.03/g16/l9999.exe)

 Test job not archived.
 1\1\GINC-ROME025\FOpt\RLC-wHPBE\def2SVP\C34H32N2O4\RDU230\10-Aug-2022\
 0\\#P LC-wHPBE/Def2SVP iop(3/107=0175500000, 3/108=0175500000) opt scf
 (maxcyc=512)\\H32 C34 N2 O4\\0,1\C,6.8472586919,4.6493844433,2.2977089
 81\O,5.620805269,4.1781648494,2.8098782644\C,5.0182673776,3.1301326006
 ,2.1803329556\C,3.7926636301,2.6982032783,2.7251661477\C,3.1045208658,
 1.6264527212,2.1624113449\C,3.6052095672,0.9635646514,1.0201645814\N,2
 .9006522011,-0.12788262,0.4447603497\C,3.619338617,-1.270357432,0.0001
 302008\C,3.3232135069,-1.8811318058,-1.2299516231\C,4.0199566111,-3.01
 74985946,-1.6648637898\C,5.0549472785,-3.5514768539,-0.8782085735\O,5.
 8004170638,-4.6429184454,-1.2111137208\C,5.5270365617,-5.291144037,-2.
 433264426\C,5.3667166201,-2.9361477904,0.3504103676\C,4.6539198565,-1.
 8224012213,0.7870486319\C,1.4940152857,-0.0642065968,0.2864561514\C,0.
 688407143,-1.205031389,0.4837576731\C,-0.6952330961,-1.1478126964,0.31
 02796457\C,-1.3364407404,0.0625268468,-0.0272574447\N,-2.7429819561,0.
 1252741854,-0.1832254423\C,-3.5916875533,-0.6319944992,0.6688037749\C,
 -4.7008124841,-1.3236815982,0.1536752532\C,-5.5544332054,-2.056516875,
 0.9902476982\C,-5.2939853619,-2.1305064365,2.3694385984\O,-6.051055155
 7,-2.8219692474,3.2674272748\C,-7.1752111397,-3.5273649665,2.790829284
 7\C,-4.1771722114,-1.4485593151,2.891692596\C,-3.3476079847,-0.7028196
 62,2.057894808\C,-3.3145738112,0.9476828327,-1.1914333348\C,-4.4418569
 435,1.74200467,-0.9226844788\C,-5.0234697871,2.5407127066,-1.917337169
 8\C,-4.4641354462,2.5770911616,-3.2062377853\O,-4.9423295829,3.3253092
 765,-4.2402788442\C,-6.0738827402,4.1352111932,-4.0116824143\C,-3.3269
 74523,1.7916726965,-3.480247181\C,-2.7692985527,0.9823282558,-2.493604
 4422\C,-0.5329858797,1.20787613,-0.2045507589\C,0.8550853812,1.1409936
 742,-0.0711031127\C,4.822119381,1.4070279477,0.4758540792\C,5.53297968
 56,2.4696014523,1.0518129969\H,7.15886356,5.4888601177,2.9450693597\H,
 7.6380026221,3.8671636288,2.3212351117\H,6.7490981055,5.0204780055,1.2
 535699174\H,3.4054971488,3.2181848548,3.612302955\H,2.1572331422,1.291
 2490889,2.6072323494\H,2.5245502884,-1.4637494912,-1.8589048364\H,3.75
 17368141,-3.4670783842,-2.6293906157\H,5.6835533374,-4.6199398482,-3.3
 065264273\H,4.487657177,-5.6857886505,-2.4734677845\H,6.2318354141,-6.
 1389733858,-2.5063271448\H,6.1734778039,-3.3679533935,0.95868282\H,4.8
 985755215,-1.3610774988,1.7539809927\H,1.1613656312,-2.1571267206,0.76
 17952031\H,-1.297896168,-2.0550665099,0.4557226678\H,-4.9058312965,-1.
 2823443055,-0.9251929876\H,-6.412770869,-2.5773740535,0.5471342633\H,-
 6.8942679061,-4.3140726938,2.0561846028\H,-7.9218939794,-2.8524648845,
 2.3167676932\H,-7.6406755536,-4.011056252,3.6684808281\H,-3.9893494301
 ,-1.5086833117,3.9726117643\H,-2.4882367441,-0.1646450922,2.4815014617
 \H,-4.8790111647,1.7303452723,0.0855067198\H,-5.9066522033,3.141675937
 8,-1.6659430854\H,-5.888247554,4.9002095965,-3.2256706879\H,-6.9640507
 298,3.5361182066,-3.7176767235\H,-6.291767604,4.650616699,-4.964448095
 2\H,-2.9042142799,1.8239819806,-4.4939170074\H,-1.8905463415,0.3645844
 073,-2.7255250929\H,-1.0067410143,2.1636048116,-0.4683278823\H,1.45906
 29981,2.0451962727,-0.2295115316\H,5.2272392434,0.9058191521,-0.414281
 5554\H,6.4830015911,2.7795129528,0.5981956302\\Version=AM64L-G16RevA.0
 3\State=1-A\HF=-1722.395423\RMSD=6.600e-09\RMSF=2.443e-06\Dipole=-0.49
 62979,-0.0235183,-0.7368805\Quadrupole=16.6618498,-0.9522172,-15.70963
 26,4.0306507,-2.1560364,3.1507732\PG=C01 [X(C34H32N2O4)]\\@


 QED = W**5 (WHICH WAS WHAT WE WANTED)
 Job cpu time:       1 days  7 hours  9 minutes 29.3 seconds.
 Elapsed time:       0 days  2 hours  1 minutes  8.7 seconds.
 File lengths (MBytes):  RWF=    440 Int=      0 D2E=      0 Chk=     48 Scr=     16
 Normal termination of Gaussian 16 at Wed Aug 10 19:48:00 2022.
