 Entering Gaussian System, Link 0=/mnt/gpfs3_amd/share/apps/amd/gaussian/g16-A.03/g16/g16
 Input=/scratch/rdu230/d3tales/high_throughput/runfiles//05XICU/gaussian/gas_phase/opt/opt_groundState.com
 Output=/scratch/rdu230/d3tales/high_throughput/runfiles//05XICU/gaussian/gas_phase/opt/opt_groundState.log
 Initial command:
 /mnt/gpfs3_amd/share/apps/amd/gaussian/g16-A.03/g16/l1.exe "/scratch/rdu230/d3tales/high_throughput/runfiles/05XICU/gaussian/gas_phase/opt/Gau-3266852.inp" -scrdir="/scratch/rdu230/d3tales/high_throughput/runfiles/05XICU/gaussian/gas_phase/opt/"
 Entering Link 1 = /mnt/gpfs3_amd/share/apps/amd/gaussian/g16-A.03/g16/l1.exe PID=   3266853.
  
 Copyright (c) 1988,1990,1992,1993,1995,1998,2003,2009,2016,
            Gaussian, Inc.  All Rights Reserved.
  
 This is part of the Gaussian(R) 16 program.  It is based on
 the Gaussian(R) 09 system (copyright 2009, Gaussian, Inc.),
 the Gaussian(R) 03 system (copyright 2003, Gaussian, Inc.),
 the Gaussian(R) 98 system (copyright 1998, Gaussian, Inc.),
 the Gaussian(R) 94 system (copyright 1995, Gaussian, Inc.),
 the Gaussian 92(TM) system (copyright 1992, Gaussian, Inc.),
 the Gaussian 90(TM) system (copyright 1990, Gaussian, Inc.),
 the Gaussian 88(TM) system (copyright 1988, Gaussian, Inc.),
 the Gaussian 86(TM) system (copyright 1986, Carnegie Mellon
 University), and the Gaussian 82(TM) system (copyright 1983,
 Carnegie Mellon University). Gaussian is a federally registered
 trademark of Gaussian, Inc.
  
 This software contains proprietary and confidential information,
 including trade secrets, belonging to Gaussian, Inc.
  
 This software is provided under written license and may be
 used, copied, transmitted, or stored only in accord with that
 written license.
  
 The following legend is applicable only to US Government
 contracts under FAR:
  
                    RESTRICTED RIGHTS LEGEND
  
 Use, reproduction and disclosure by the US Government is
 subject to restrictions as set forth in subparagraphs (a)
 and (c) of the Commercial Computer Software - Restricted
 Rights clause in FAR 52.227-19.
  
 Gaussian, Inc.
 340 Quinnipiac St., Bldg. 40, Wallingford CT 06492
  
  
 ---------------------------------------------------------------
 Warning -- This program may not be used in any manner that
 competes with the business of Gaussian, Inc. or will provide
 assistance to any competitor of Gaussian, Inc.  The licensee
 of this program is prohibited from giving any competitor of
 Gaussian, Inc. access to this program.  By using this program,
 the user acknowledges that Gaussian, Inc. is engaged in the
 business of creating and licensing software in the field of
 computational chemistry and represents and warrants to the
 licensee that it is not a competitor of Gaussian, Inc. and that
 it will not use this program in any manner prohibited above.
 ---------------------------------------------------------------
  

 Cite this work as:
 Gaussian 16, Revision A.03,
 M. J. Frisch, G. W. Trucks, H. B. Schlegel, G. E. Scuseria, 
 M. A. Robb, J. R. Cheeseman, G. Scalmani, V. Barone, 
 G. A. Petersson, H. Nakatsuji, X. Li, M. Caricato, A. V. Marenich, 
 J. Bloino, B. G. Janesko, R. Gomperts, B. Mennucci, H. P. Hratchian, 
 J. V. Ortiz, A. F. Izmaylov, J. L. Sonnenberg, D. Williams-Young, 
 F. Ding, F. Lipparini, F. Egidi, J. Goings, B. Peng, A. Petrone, 
 T. Henderson, D. Ranasinghe, V. G. Zakrzewski, J. Gao, N. Rega, 
 G. Zheng, W. Liang, M. Hada, M. Ehara, K. Toyota, R. Fukuda, 
 J. Hasegawa, M. Ishida, T. Nakajima, Y. Honda, O. Kitao, H. Nakai, 
 T. Vreven, K. Throssell, J. A. Montgomery, Jr., J. E. Peralta, 
 F. Ogliaro, M. J. Bearpark, J. J. Heyd, E. N. Brothers, K. N. Kudin, 
 V. N. Staroverov, T. A. Keith, R. Kobayashi, J. Normand, 
 K. Raghavachari, A. P. Rendell, J. C. Burant, S. S. Iyengar, 
 J. Tomasi, M. Cossi, J. M. Millam, M. Klene, C. Adamo, R. Cammi, 
 J. W. Ochterski, R. L. Martin, K. Morokuma, O. Farkas, 
 J. B. Foresman, and D. J. Fox, Gaussian, Inc., Wallingford CT, 2016.
 
 ******************************************
 Gaussian 16:  AM64L-G16RevA.03 25-Dec-2016
                10-Aug-2022 
 ******************************************
 %chk=/scratch/rdu230/d3tales/high_throughput/runfiles//05XICU/gaussian/gas_phase
 /opt/opt_groundState.chk
 %mem=48GB
 %nprocshared=16
 Will use up to   16 processors via shared memory.
 ----------------------------------------------------------------------
 #P LC-wHPBE/Def2SVP iop(3/107=0499400000, 3/108=0499400000) opt scf(ma
 xcyc=512)
 ----------------------------------------------------------------------
 1/18=20,19=15,26=3,38=1/1,3;
 2/9=110,12=2,17=6,18=5,40=1/2;
 3/5=43,7=101,11=2,25=1,30=1,71=1,74=-71,107=499400000,108=499400000/1,2,3;
 4//1;
 5/5=2,7=512,38=5/2;
 6/7=2,8=2,9=2,10=2,28=1/1;
 7//1,2,3,16;
 1/18=20,19=15,26=3/3(2);
 2/9=110/2;
 99//99;
 2/9=110/2;
 3/5=43,7=101,11=2,25=1,30=1,71=1,74=-71,107=499400000,108=499400000/1,2,3;
 4/5=5,16=3,69=1/1;
 5/5=2,7=512,38=5/2;
 7//1,2,3,16;
 1/18=20,19=15,26=3/3(-5);
 2/9=110/2;
 6/7=2,8=2,9=2,10=2,19=2,28=1/1;
 99/9=1/99;
 Leave Link    1 at Wed Aug 10 16:56:47 2022, MaxMem=  6442450944 cpu:               4.4 elap:               0.3
 (Enter /mnt/gpfs3_amd/share/apps/amd/gaussian/g16-A.03/g16/l101.exe)
 -----
 H2 O1
 -----
 Symbolic Z-matrix:
 Charge =  0 Multiplicity = 1
 O                    -0.0057    0.38516   0. 
 H                    -0.79608  -0.19468   0. 
 H                     0.80178  -0.19048   0. 
 
 ITRead=  0  0  0
 MicOpt= -1 -1 -1
 NAtoms=      3 NQM=        3 NQMF=       0 NMMI=      0 NMMIF=      0
                NMic=       0 NMicF=      0.
                    Isotopes and Nuclear Properties:
 (Nuclear quadrupole moments (NQMom) in fm**2, nuclear magnetic moments (NMagM)
  in nuclear magnetons)

  Atom         1           2           3
 IAtWgt=          16           1           1
 AtmWgt=  15.9949146   1.0078250   1.0078250
 NucSpn=           0           1           1
 AtZEff=  -0.0000000  -0.0000000  -0.0000000
 NQMom=    0.0000000   0.0000000   0.0000000
 NMagM=    0.0000000   2.7928460   2.7928460
 AtZNuc=   8.0000000   1.0000000   1.0000000
 Leave Link  101 at Wed Aug 10 16:56:47 2022, MaxMem=  6442450944 cpu:               2.8 elap:               0.2
 (Enter /mnt/gpfs3_amd/share/apps/amd/gaussian/g16-A.03/g16/l103.exe)

 GradGradGradGradGradGradGradGradGradGradGradGradGradGradGradGradGradGrad
 Berny optimization.
 Initialization pass.
                           ----------------------------
                           !    Initial Parameters    !
                           ! (Angstroms and Degrees)  !
 --------------------------                            --------------------------
 ! Name  Definition              Value          Derivative Info.                !
 --------------------------------------------------------------------------------
 ! R1    R(1,2)                  0.9803         estimate D2E/DX2                !
 ! R2    R(1,3)                  0.9917         estimate D2E/DX2                !
 ! A1    A(2,1,3)              108.251          estimate D2E/DX2                !
 --------------------------------------------------------------------------------
 Trust Radius=3.00D-01 FncErr=1.00D-07 GrdErr=1.00D-06 EigMax=2.50D+02 EigMin=1.00D-04
 Number of steps in this run=     20 maximum allowed number of steps=    100.
 GradGradGradGradGradGradGradGradGradGradGradGradGradGradGradGradGradGrad

 Leave Link  103 at Wed Aug 10 16:56:47 2022, MaxMem=  6442450944 cpu:               0.1 elap:               0.0
 (Enter /mnt/gpfs3_amd/share/apps/amd/gaussian/g16-A.03/g16/l202.exe)
                          Input orientation:                          
 ---------------------------------------------------------------------
 Center     Atomic      Atomic             Coordinates (Angstroms)
 Number     Number       Type             X           Y           Z
 ---------------------------------------------------------------------
      1          8           0       -0.005703    0.385159    0.000000
      2          1           0       -0.796078   -0.194675    0.000000
      3          1           0        0.801781   -0.190484    0.000000
 ---------------------------------------------------------------------
                    Distance matrix (angstroms):
                    1          2          3
     1  O    0.000000
     2  H    0.980255   0.000000
     3  H    0.991663   1.597864   0.000000
 Stoichiometry    H2O
 Framework group  CS[SG(H2O)]
 Deg. of freedom     3
 Full point group                 CS      NOp   2
 Largest Abelian subgroup         CS      NOp   2
 Largest concise Abelian subgroup C1      NOp   1
                         Standard orientation:                         
 ---------------------------------------------------------------------
 Center     Atomic      Atomic             Coordinates (Angstroms)
 Number     Number       Type             X           Y           Z
 ---------------------------------------------------------------------
      1          8           0        0.000000    0.115560    0.000000
      2          1           0        0.798873   -0.452508   -0.000000
      3          1           0       -0.798873   -0.471975   -0.000000
 ---------------------------------------------------------------------
 Rotational constants (GHZ):         845.8824126         392.7591064         268.2196708
 Leave Link  202 at Wed Aug 10 16:56:47 2022, MaxMem=  6442450944 cpu:               0.6 elap:               0.1
 (Enter /mnt/gpfs3_amd/share/apps/amd/gaussian/g16-A.03/g16/l301.exe)
 Standard basis: def2SVP (5D, 7F)
 Ernie: Thresh=  0.10000D-02 Tol=  0.10000D-05 Strict=F.
 There are    19 symmetry adapted cartesian basis functions of A'  symmetry.
 There are     6 symmetry adapted cartesian basis functions of A"  symmetry.
 There are    18 symmetry adapted basis functions of A'  symmetry.
 There are     6 symmetry adapted basis functions of A"  symmetry.
    24 basis functions,    39 primitive gaussians,    25 cartesian basis functions
     5 alpha electrons        5 beta electrons
       nuclear repulsion energy         8.9188763696 Hartrees.
 IExCor=33909 DFT=T Ex+Corr=LC-wHPBE ExCW=0 ScaHFX=  1.000000
 ScaDFX=  1.000000  1.000000  1.000000  1.000000 ScalE2=  1.000000  1.000000
 IRadAn=      5 IRanWt=     -1 IRanGd=            0 ICorTp=0 IEmpDi=  4
 HFx  wShort=  0.000000 wLong=  0.499400 cFull=  0.000000 cShort=  0.000000 cLong=  1.000000
 DFx  wShort=  0.000000 wLong=  0.499400 cFull=  0.000000 cShort=  1.000000 cLong=  0.000000
 NAtoms=    3 NActive=    3 NUniq=    3 SFac= 1.00D+00 NAtFMM=   60 NAOKFM=F Big=F
 Integral buffers will be    131072 words long.
 Raffenetti 2 integral format.
 Two-electron integral symmetry is turned on.
 Leave Link  301 at Wed Aug 10 16:56:48 2022, MaxMem=  6442450944 cpu:               0.4 elap:               0.0
 (Enter /mnt/gpfs3_amd/share/apps/amd/gaussian/g16-A.03/g16/l302.exe)
 NPDir=0 NMtPBC=     1 NCelOv=     1 NCel=       1 NClECP=     1 NCelD=      1
         NCelK=      1 NCelE2=     1 NClLst=     1 CellRange=     0.0.
 One-electron integrals computed using PRISM.
 One-electron integral symmetry used in STVInt
   2 Symmetry operations used in ECPInt.
 ECPInt:  NShTT=      78 NPrTT=     272 LenC2=      79 LenP2D=     271.
 LDataN:  DoStor=T MaxTD1= 4 Len=   56
 NBasis=    24 RedAO= T EigKep=  4.07D-02  NBF=    18     6
 NBsUse=    24 1.00D-06 EigRej= -1.00D+00 NBFU=    18     6
 Precomputing XC quadrature grid using
 IXCGrd= 4 IRadAn=           5 IRanWt=          -1 IRanGd=           0 AccXCQ= 0.00D+00.
 Generated NRdTot=       0 NPtTot=           0 NUsed=           0 NTot=          32
 NSgBfM=    25    25    25    25    25 MxSgAt=     3 MxSgA2=     3.
 Leave Link  302 at Wed Aug 10 16:56:48 2022, MaxMem=  6442450944 cpu:               1.8 elap:               0.1
 (Enter /mnt/gpfs3_amd/share/apps/amd/gaussian/g16-A.03/g16/l303.exe)
 DipDrv:  MaxL=1.
 Leave Link  303 at Wed Aug 10 16:56:48 2022, MaxMem=  6442450944 cpu:               0.2 elap:               0.0
 (Enter /mnt/gpfs3_amd/share/apps/amd/gaussian/g16-A.03/g16/l401.exe)
 ExpMin= 1.22D-01 ExpMax= 2.27D+03 ExpMxC= 3.41D+02 IAcc=3 IRadAn=         5 AccDes= 0.00D+00
 Harris functional with IExCor=33909 and IRadAn=       5 diagonalized for initial guess.
 HarFok:  IExCor=33909 AccDes= 0.00D+00 IRadAn=         5 IDoV= 1 UseB2=F ITyADJ=14
 ICtDFT=  3500011 ScaDFX=  1.000000  1.000000  1.000000  1.000000
 FoFCou: FMM=F IPFlag=           0 FMFlag=      100000 FMFlg1=           0
         NFxFlg=           0 DoJE=T BraDBF=F KetDBF=T FulRan=T
         wScrn=  0.000000 ICntrl=       500 IOpCl=  0 I1Cent=   200000004 NGrid=           0
         NMat0=    1 NMatS0=      1 NMatT0=    0 NMatD0=    1 NMtDS0=    0 NMtDT0=    0
 Petite list used in FoFCou.
 Harris En= -73.9198492602031    
 JPrj=0 DoOrth=F DoCkMO=F.
 Initial guess orbital symmetries:
       Occupied  (A') (A') (A') (A') (A")
       Virtual   (A') (A') (A') (A') (A') (A") (A') (A') (A") (A')
                 (A") (A') (A') (A') (A") (A") (A') (A') (A')
 The electronic state of the initial guess is 1-A'.
 Leave Link  401 at Wed Aug 10 16:56:48 2022, MaxMem=  6442450944 cpu:               2.8 elap:               0.2
 (Enter /mnt/gpfs3_amd/share/apps/amd/gaussian/g16-A.03/g16/l502.exe)
 Keep R1 ints in memory in symmetry-blocked form, NReq=13884302.
 FoFCou: FMM=F IPFlag=           0 FMFlag=           0 FMFlg1=           0
         NFxFlg=           0 DoJE=F BraDBF=F KetDBF=F FulRan=T
         wScrn=  0.000000 ICntrl=       600 IOpCl=  0 I1Cent=           0 NGrid=           0
         NMat0=    1 NMatS0=    300 NMatT0=    0 NMatD0=    1 NMtDS0=    0 NMtDT0=    0
 Petite list used in FoFCou.
 Closed shell SCF:
 Using DIIS extrapolation, IDIIS=  1040.
 NGot=  6442450944 LenX=  6442423464 LenY=  6442422398
 Requested convergence on RMS density matrix=1.00D-08 within 512 cycles.
 Requested convergence on MAX density matrix=1.00D-06.
 Requested convergence on             energy=1.00D-06.
 No special actions if energy rises.
 Integral accuracy reduced to 1.0D-05 until final iterations.

 Cycle   1  Pass 0  IDiag  1:
 E= -76.3017078441229    
 DIIS: error= 3.46D-02 at cycle   1 NSaved=   1.
 NSaved= 1 IEnMin= 1 EnMin= -76.3017078441229     IErMin= 1 ErrMin= 3.46D-02
 ErrMax= 3.46D-02  0.00D+00 EMaxC= 1.00D-01 BMatC= 3.06D-02 BMatP= 3.06D-02
 IDIUse=3 WtCom= 6.54D-01 WtEn= 3.46D-01
 Coeff-Com:  0.100D+01
 Coeff-En:   0.100D+01
 Coeff:      0.100D+01
 Gap=     0.517 Goal=   None    Shift=    0.000
 GapD=    0.517 DampG=2.000 DampE=0.500 DampFc=1.0000 IDamp=-1.
 RMSDP=7.35D-03 MaxDP=6.30D-02              OVMax= 8.03D-02

 Cycle   2  Pass 0  IDiag  1:
 E= -76.3107934467574     Delta-E=       -0.009085602635 Rises=F Damp=F
 DIIS: error= 2.49D-02 at cycle   2 NSaved=   2.
 NSaved= 2 IEnMin= 2 EnMin= -76.3107934467574     IErMin= 2 ErrMin= 2.49D-02
 ErrMax= 2.49D-02  0.00D+00 EMaxC= 1.00D-01 BMatC= 2.10D-02 BMatP= 3.06D-02
 IDIUse=3 WtCom= 7.51D-01 WtEn= 2.49D-01
 Coeff-Com:  0.451D+00 0.549D+00
 Coeff-En:   0.351D+00 0.649D+00
 Coeff:      0.426D+00 0.574D+00
 Gap=     0.593 Goal=   None    Shift=    0.000
 RMSDP=3.78D-03 MaxDP=3.44D-02 DE=-9.09D-03 OVMax= 3.28D-02

 Cycle   3  Pass 0  IDiag  1:
 E= -76.3251066760033     Delta-E=       -0.014313229246 Rises=F Damp=F
 DIIS: error= 2.44D-03 at cycle   3 NSaved=   3.
 NSaved= 3 IEnMin= 3 EnMin= -76.3251066760033     IErMin= 3 ErrMin= 2.44D-03
 ErrMax= 2.44D-03  0.00D+00 EMaxC= 1.00D-01 BMatC= 1.29D-04 BMatP= 2.10D-02
 IDIUse=3 WtCom= 9.76D-01 WtEn= 2.44D-02
 Coeff-Com: -0.320D-02 0.614D-01 0.942D+00
 Coeff-En:   0.000D+00 0.000D+00 0.100D+01
 Coeff:     -0.312D-02 0.599D-01 0.943D+00
 Gap=     0.591 Goal=   None    Shift=    0.000
 RMSDP=2.75D-04 MaxDP=2.57D-03 DE=-1.43D-02 OVMax= 3.30D-03

 Cycle   4  Pass 0  IDiag  1:
 E= -76.3252132294999     Delta-E=       -0.000106553497 Rises=F Damp=F
 DIIS: error= 3.74D-04 at cycle   4 NSaved=   4.
 NSaved= 4 IEnMin= 4 EnMin= -76.3252132294999     IErMin= 4 ErrMin= 3.74D-04
 ErrMax= 3.74D-04  0.00D+00 EMaxC= 1.00D-01 BMatC= 1.88D-06 BMatP= 1.29D-04
 IDIUse=3 WtCom= 9.96D-01 WtEn= 3.74D-03
 Coeff-Com: -0.120D-01-0.167D-01 0.263D-01 0.100D+01
 Coeff-En:   0.000D+00 0.000D+00 0.000D+00 0.100D+01
 Coeff:     -0.120D-01-0.167D-01 0.262D-01 0.100D+01
 Gap=     0.592 Goal=   None    Shift=    0.000
 RMSDP=4.61D-05 MaxDP=5.71D-04 DE=-1.07D-04 OVMax= 4.77D-04

 Cycle   5  Pass 0  IDiag  1:
 E= -76.3252149989918     Delta-E=       -0.000001769492 Rises=F Damp=F
 DIIS: error= 3.90D-05 at cycle   5 NSaved=   5.
 NSaved= 5 IEnMin= 5 EnMin= -76.3252149989918     IErMin= 5 ErrMin= 3.90D-05
 ErrMax= 3.90D-05  0.00D+00 EMaxC= 1.00D-01 BMatC= 1.63D-08 BMatP= 1.88D-06
 IDIUse=1 WtCom= 1.00D+00 WtEn= 0.00D+00
 Coeff-Com:  0.951D-03 0.502D-03-0.117D-01-0.956D-01 0.111D+01
 Coeff:      0.951D-03 0.502D-03-0.117D-01-0.956D-01 0.111D+01
 Gap=     0.592 Goal=   None    Shift=    0.000
 RMSDP=6.51D-06 MaxDP=7.43D-05 DE=-1.77D-06 OVMax= 6.47D-05

 Initial convergence to 1.0D-05 achieved.  Increase integral accuracy.
 Cycle   6  Pass 1  IDiag  1:
 E= -76.3252133895009     Delta-E=        0.000001609491 Rises=F Damp=F
 DIIS: error= 4.94D-06 at cycle   1 NSaved=   1.
 NSaved= 1 IEnMin= 1 EnMin= -76.3252133895009     IErMin= 1 ErrMin= 4.94D-06
 ErrMax= 4.94D-06  0.00D+00 EMaxC= 1.00D-01 BMatC= 3.58D-10 BMatP= 3.58D-10
 IDIUse=1 WtCom= 1.00D+00 WtEn= 0.00D+00
 Coeff-Com:  0.100D+01
 Coeff:      0.100D+01
 Gap=     0.592 Goal=   None    Shift=    0.000
 RMSDP=6.51D-06 MaxDP=7.43D-05 DE= 1.61D-06 OVMax= 8.86D-06

 Cycle   7  Pass 1  IDiag  1:
 E= -76.3252133900935     Delta-E=       -0.000000000593 Rises=F Damp=F
 DIIS: error= 1.28D-06 at cycle   2 NSaved=   2.
 NSaved= 2 IEnMin= 2 EnMin= -76.3252133900935     IErMin= 2 ErrMin= 1.28D-06
 ErrMax= 1.28D-06  0.00D+00 EMaxC= 1.00D-01 BMatC= 4.72D-11 BMatP= 3.58D-10
 IDIUse=1 WtCom= 1.00D+00 WtEn= 0.00D+00
 Coeff-Com:  0.426D-01 0.957D+00
 Coeff:      0.426D-01 0.957D+00
 Gap=     0.592 Goal=   None    Shift=    0.000
 RMSDP=4.87D-07 MaxDP=3.87D-06 DE=-5.93D-10 OVMax= 4.92D-06

 Cycle   8  Pass 1  IDiag  1:
 E= -76.3252133901584     Delta-E=       -0.000000000065 Rises=F Damp=F
 DIIS: error= 1.11D-06 at cycle   3 NSaved=   3.
 NSaved= 3 IEnMin= 3 EnMin= -76.3252133901584     IErMin= 3 ErrMin= 1.11D-06
 ErrMax= 1.11D-06  0.00D+00 EMaxC= 1.00D-01 BMatC= 2.63D-11 BMatP= 4.72D-11
 IDIUse=1 WtCom= 1.00D+00 WtEn= 0.00D+00
 Coeff-Com: -0.185D+00 0.411D+00 0.774D+00
 Coeff:     -0.185D+00 0.411D+00 0.774D+00
 Gap=     0.592 Goal=   None    Shift=    0.000
 RMSDP=1.91D-07 MaxDP=2.01D-06 DE=-6.50D-11 OVMax= 1.64D-06

 Cycle   9  Pass 1  IDiag  1:
 E= -76.3252133901810     Delta-E=       -0.000000000023 Rises=F Damp=F
 DIIS: error= 9.88D-08 at cycle   4 NSaved=   4.
 NSaved= 4 IEnMin= 4 EnMin= -76.3252133901810     IErMin= 4 ErrMin= 9.88D-08
 ErrMax= 9.88D-08  0.00D+00 EMaxC= 1.00D-01 BMatC= 1.18D-13 BMatP= 2.63D-11
 IDIUse=1 WtCom= 1.00D+00 WtEn= 0.00D+00
 Coeff-Com:  0.492D-01-0.118D+00-0.244D+00 0.131D+01
 Coeff:      0.492D-01-0.118D+00-0.244D+00 0.131D+01
 Gap=     0.592 Goal=   None    Shift=    0.000
 RMSDP=3.83D-08 MaxDP=2.38D-07 DE=-2.25D-11 OVMax= 5.75D-07

 Cycle  10  Pass 1  IDiag  1:
 E= -76.3252133901815     Delta-E=       -0.000000000001 Rises=F Damp=F
 DIIS: error= 1.89D-08 at cycle   5 NSaved=   5.
 NSaved= 5 IEnMin= 5 EnMin= -76.3252133901815     IErMin= 5 ErrMin= 1.89D-08
 ErrMax= 1.89D-08  0.00D+00 EMaxC= 1.00D-01 BMatC= 5.65D-15 BMatP= 1.18D-13
 IDIUse=1 WtCom= 1.00D+00 WtEn= 0.00D+00
 Coeff-Com:  0.681D-02-0.141D-01-0.287D-01-0.637D-01 0.110D+01
 Coeff:      0.681D-02-0.141D-01-0.287D-01-0.637D-01 0.110D+01
 Gap=     0.592 Goal=   None    Shift=    0.000
 RMSDP=8.25D-09 MaxDP=5.10D-08 DE=-5.26D-13 OVMax= 1.16D-07

 SCF Done:  E(RLC-wHPBE) =  -76.3252133902     A.U. after   10 cycles
            NFock= 10  Conv=0.83D-08     -V/T= 2.0088
 KE= 7.565892610542D+01 PE=-1.983207556212D+02 EE= 3.741773975599D+01
 Leave Link  502 at Wed Aug 10 16:56:48 2022, MaxMem=  6442450944 cpu:               7.4 elap:               0.5
 (Enter /mnt/gpfs3_amd/share/apps/amd/gaussian/g16-A.03/g16/l601.exe)
 Copying SCF densities to generalized density rwf, IOpCl= 0 IROHF=0.

 **********************************************************************

            Population analysis using the SCF density.

 **********************************************************************

 Orbital symmetries:
       Occupied  (A') (A') (A') (A') (A")
       Virtual   (A') (A') (A') (A') (A') (A") (A') (A') (A") (A')
                 (A") (A') (A') (A') (A") (A") (A') (A') (A')
 The electronic state is 1-A'.
 Alpha  occ. eigenvalues --  -19.00865  -1.14153  -0.66135  -0.50500  -0.43933
 Alpha virt. eigenvalues --    0.15282   0.22835   0.69378   0.72499   1.06868
 Alpha virt. eigenvalues --    1.07768   1.14968   1.22605   1.46923   1.60386
 Alpha virt. eigenvalues --    1.70804   1.88369   2.31892   2.36361   3.06698
 Alpha virt. eigenvalues --    3.14772   3.27971   3.65502   3.92160
          Condensed to atoms (all electrons):
               1          2          3
     1  O    7.675043   0.336986   0.334258
     2  H    0.336986   0.520968  -0.028821
     3  H    0.334258  -0.028821   0.519142
 Mulliken charges:
               1
     1  O   -0.346287
     2  H    0.170866
     3  H    0.175421
 Sum of Mulliken charges =   0.00000
 Mulliken charges with hydrogens summed into heavy atoms:
               1
     1  O    0.000000
 Electronic spatial extent (au):  <R**2>=             19.1433
 Charge=              0.0000 electrons
 Dipole moment (field-independent basis, Debye):
    X=              0.0066    Y=             -2.0504    Z=             -0.0000  Tot=              2.0504
 Quadrupole moment (field-independent basis, Debye-Ang):
   XX=             -3.9815   YY=             -6.0272   ZZ=             -7.0423
   XY=              0.0323   XZ=              0.0000   YZ=             -0.0000
 Traceless Quadrupole moment (field-independent basis, Debye-Ang):
   XX=              1.7022   YY=             -0.3435   ZZ=             -1.3587
   XY=              0.0323   XZ=              0.0000   YZ=             -0.0000
 Octapole moment (field-independent basis, Debye-Ang**2):
  XXX=              0.0164  YYY=             -1.1258  ZZZ=             -0.0000  XYY=             -0.0202
  XXY=             -1.3017  XXZ=             -0.0000  XZZ=              0.0077  YZZ=             -0.2914
  YYZ=              0.0000  XYZ=              0.0000
 Hexadecapole moment (field-independent basis, Debye-Ang**3):
 XXXX=             -5.8452 YYYY=             -6.0572 ZZZZ=             -4.8742 XXXY=             -0.0029
 XXXZ=              0.0000 YYYX=             -0.0031 YYYZ=              0.0000 ZZZX=              0.0000
 ZZZY=             -0.0000 XXYY=             -1.6667 XXZZ=             -2.1232 YYZZ=             -1.8710
 XXYZ=             -0.0000 YYXZ=              0.0000 ZZXY=             -0.0093
 N-N= 8.918876369637D+00 E-N=-1.983207556698D+02  KE= 7.565892610542D+01
 Symmetry A'   KE= 7.103012326809D+01
 Symmetry A"   KE= 4.628802837326D+00
 No NMR shielding tensors so no spin-rotation constants.
 Leave Link  601 at Wed Aug 10 16:56:48 2022, MaxMem=  6442450944 cpu:               1.6 elap:               0.1
 (Enter /mnt/gpfs3_amd/share/apps/amd/gaussian/g16-A.03/g16/l701.exe)
 ... and contract with generalized density number  0.
 Compute integral first derivatives.
   2 Symmetry operations used in ECPInt.
 ECPInt:  NShTT=      78 NPrTT=     272 LenC2=      79 LenP2D=     271.
 LDataN:  DoStor=T MaxTD1= 5 Len=  102
 Leave Link  701 at Wed Aug 10 16:56:49 2022, MaxMem=  6442450944 cpu:               1.7 elap:               0.1
 (Enter /mnt/gpfs3_amd/share/apps/amd/gaussian/g16-A.03/g16/l702.exe)
 L702 exits ... SP integral derivatives will be done elsewhere.
 Leave Link  702 at Wed Aug 10 16:56:49 2022, MaxMem=  6442450944 cpu:               0.2 elap:               0.0
 (Enter /mnt/gpfs3_amd/share/apps/amd/gaussian/g16-A.03/g16/l703.exe)
 Integral derivatives from FoFJK, PRISM(SPDF).
 Compute integral first derivatives, UseDBF=F ICtDFT=           0.
 Calling FoFJK, ICntrl=      2127 FMM=F ISym2X=1 I1Cent= 0 IOpClX= 0 NMat=1 NMatS=1 NMatT=0.
 FoFJK:  IHMeth= 1 ICntrl=    2127 DoSepK=T KAlg= 0 I1Cent=           0 FoldK=F
 IRaf=         1 NMat=       1 IRICut=       1 DoRegI=T DoRafI=F ISym2E= 1 IDoP0=0 IntGTp=1.
 FoFCou: FMM=F IPFlag=           0 FMFlag=      100000 FMFlg1=         800
         NFxFlg=           0 DoJE=F BraDBF=F KetDBF=F FulRan=T
         wScrn=  0.000000 ICntrl=      2527 IOpCl=  0 I1Cent=           0 NGrid=           0
         NMat0=    1 NMatS0=      1 NMatT0=    0 NMatD0=    1 NMtDS0=    0 NMtDT0=    0
 Petite list used in FoFCou.
 Leave Link  703 at Wed Aug 10 16:56:49 2022, MaxMem=  6442450944 cpu:               8.4 elap:               0.6
 (Enter /mnt/gpfs3_amd/share/apps/amd/gaussian/g16-A.03/g16/l716.exe)
 Dipole        = 2.60387817D-03-8.06671690D-01-5.47402505D-36
 ***** Axes restored to original set *****
 -------------------------------------------------------------------
 Center     Atomic                   Forces (Hartrees/Bohr)
 Number     Number              X              Y              Z
 -------------------------------------------------------------------
      1        8           0.008611907   -0.022970707   -0.000000000
      2        1           0.023542430    0.008567394   -0.000000000
      3        1          -0.032154337    0.014403313    0.000000000
 -------------------------------------------------------------------
 Cartesian Forces:  Max     0.032154337 RMS     0.016569119
 Leave Link  716 at Wed Aug 10 16:56:49 2022, MaxMem=  6442450944 cpu:               0.2 elap:               0.0
 (Enter /mnt/gpfs3_amd/share/apps/amd/gaussian/g16-A.03/g16/l103.exe)

 GradGradGradGradGradGradGradGradGradGradGradGradGradGradGradGradGradGrad
 Berny optimization.
 FormGI is forming the generalized inverse of G from B-inverse, IUseBI=4.
 Internal  Forces:  Max     0.034543214 RMS     0.025433728
 Search for a local minimum.
 Step number   1 out of a maximum of   20
 All quantities printed in internal units (Hartrees-Bohrs-Radians)
 RMS Force = .25434D-01 SwitMx=.10000D-02 MixMth= 1
 Mixed Optimization -- RFO/linear search
 Second derivative matrix not updated -- first step.
 The second derivative matrix:
                          R1        R2        A1
           R1           0.51335
           R2           0.00000   0.49185
           A1           0.00000   0.00000   0.16000
 ITU=  0
     Eigenvalues ---    0.16000   0.49185   0.51335
 RFO step:  Lambda=-4.54761845D-03 EMin= 1.60000000D-01
 Linear search not attempted -- first point.
 Iteration  1 RMS(Cart)=  0.07467780 RMS(Int)=  0.00189936
 Iteration  2 RMS(Cart)=  0.00125874 RMS(Int)=  0.00000156
 Iteration  3 RMS(Cart)=  0.00000175 RMS(Int)=  0.00000000
 Iteration  4 RMS(Cart)=  0.00000000 RMS(Int)=  0.00000000
 ITry= 1 IFail=0 DXMaxC= 9.39D-02 DCOld= 1.00D+10 DXMaxT= 3.00D-01 DXLimC= 3.00D+00 Rises=F
 ClnCor:  largest displacement from symmetrization is 5.55D-17 for atom     2.
 Variable       Old X    -DE/DX   Delta X   Delta X   Delta X     New X
                                 (Linear)    (Quad)   (Total)
    R1        1.85241  -0.02405   0.00000  -0.04644  -0.04644   1.80598
    R2        1.87397  -0.03454   0.00000  -0.06959  -0.06959   1.80438
    A1        1.88934  -0.01300   0.00000  -0.07900  -0.07900   1.81033
         Item               Value     Threshold  Converged?
 Maximum Force            0.034543     0.000450     NO 
 RMS     Force            0.025434     0.000300     NO 
 Maximum Displacement     0.093923     0.001800     NO 
 RMS     Displacement     0.074486     0.001200     NO 
 Predicted change in Energy=-2.303915D-03
 Lowest energy point so far.  Saving SCF results.
 GradGradGradGradGradGradGradGradGradGradGradGradGradGradGradGradGradGrad

 Leave Link  103 at Wed Aug 10 16:56:49 2022, MaxMem=  6442450944 cpu:               0.1 elap:               0.0
 (Enter /mnt/gpfs3_amd/share/apps/amd/gaussian/g16-A.03/g16/l202.exe)
                          Input orientation:                          
 ---------------------------------------------------------------------
 Center     Atomic      Atomic             Coordinates (Angstroms)
 Number     Number       Type             X           Y           Z
 ---------------------------------------------------------------------
      1          8           0       -0.001496    0.393280   -0.000000
      2          1           0       -0.750583   -0.200181    0.000000
      3          1           0        0.752079   -0.193099   -0.000000
 ---------------------------------------------------------------------
                    Distance matrix (angstroms):
                    1          2          3
     1  O    0.000000
     2  H    0.955682   0.000000
     3  H    0.954838   1.502678   0.000000
 Stoichiometry    H2O
 Framework group  CS[SG(H2O)]
 Deg. of freedom     3
 Full point group                 CS      NOp   2
 RotChk:  IX=0 Diff= 1.56D-02
 Largest Abelian subgroup         CS      NOp   2
 Largest concise Abelian subgroup C1      NOp   1
                         Standard orientation:                         
 ---------------------------------------------------------------------
 Center     Atomic      Atomic             Coordinates (Angstroms)
 Number     Number       Type             X           Y           Z
 ---------------------------------------------------------------------
      1          8           0        0.000000    0.117985    0.000000
      2          1           0        0.751339   -0.472622    0.000000
      3          1           0       -0.751339   -0.471257    0.000000
 ---------------------------------------------------------------------
 Rotational constants (GHZ):         811.2508415         444.1498217         287.0134827
 Leave Link  202 at Wed Aug 10 16:56:49 2022, MaxMem=  6442450944 cpu:               0.1 elap:               0.0
 (Enter /mnt/gpfs3_amd/share/apps/amd/gaussian/g16-A.03/g16/l301.exe)
 Standard basis: def2SVP (5D, 7F)
 Ernie: Thresh=  0.10000D-02 Tol=  0.10000D-05 Strict=F.
 There are    19 symmetry adapted cartesian basis functions of A'  symmetry.
 There are     6 symmetry adapted cartesian basis functions of A"  symmetry.
 There are    18 symmetry adapted basis functions of A'  symmetry.
 There are     6 symmetry adapted basis functions of A"  symmetry.
    24 basis functions,    39 primitive gaussians,    25 cartesian basis functions
     5 alpha electrons        5 beta electrons
       nuclear repulsion energy         9.2155413369 Hartrees.
 IExCor=33909 DFT=T Ex+Corr=LC-wHPBE ExCW=0 ScaHFX=  1.000000
 ScaDFX=  1.000000  1.000000  1.000000  1.000000 ScalE2=  1.000000  1.000000
 IRadAn=      5 IRanWt=     -1 IRanGd=            0 ICorTp=0 IEmpDi=  4
 HFx  wShort=  0.000000 wLong=  0.499400 cFull=  0.000000 cShort=  0.000000 cLong=  1.000000
 DFx  wShort=  0.000000 wLong=  0.499400 cFull=  0.000000 cShort=  1.000000 cLong=  0.000000
 NAtoms=    3 NActive=    3 NUniq=    3 SFac= 1.00D+00 NAtFMM=   60 NAOKFM=F Big=F
 Integral buffers will be    131072 words long.
 Raffenetti 2 integral format.
 Two-electron integral symmetry is turned on.
 Leave Link  301 at Wed Aug 10 16:56:49 2022, MaxMem=  6442450944 cpu:               0.4 elap:               0.0
 (Enter /mnt/gpfs3_amd/share/apps/amd/gaussian/g16-A.03/g16/l302.exe)
 NPDir=0 NMtPBC=     1 NCelOv=     1 NCel=       1 NClECP=     1 NCelD=      1
         NCelK=      1 NCelE2=     1 NClLst=     1 CellRange=     0.0.
 One-electron integrals computed using PRISM.
 One-electron integral symmetry used in STVInt
   2 Symmetry operations used in ECPInt.
 ECPInt:  NShTT=      78 NPrTT=     272 LenC2=      79 LenP2D=     271.
 LDataN:  DoStor=T MaxTD1= 4 Len=   56
 NBasis=    24 RedAO= T EigKep=  3.72D-02  NBF=    18     6
 NBsUse=    24 1.00D-06 EigRej= -1.00D+00 NBFU=    18     6
 Precomputing XC quadrature grid using
 IXCGrd= 4 IRadAn=           5 IRanWt=          -1 IRanGd=           0 AccXCQ= 0.00D+00.
 Generated NRdTot=       0 NPtTot=           0 NUsed=           0 NTot=          32
 NSgBfM=    25    25    25    25    25 MxSgAt=     3 MxSgA2=     3.
 Leave Link  302 at Wed Aug 10 16:56:50 2022, MaxMem=  6442450944 cpu:               3.4 elap:               0.2
 (Enter /mnt/gpfs3_amd/share/apps/amd/gaussian/g16-A.03/g16/l303.exe)
 DipDrv:  MaxL=1.
 Leave Link  303 at Wed Aug 10 16:56:50 2022, MaxMem=  6442450944 cpu:               0.8 elap:               0.1
 (Enter /mnt/gpfs3_amd/share/apps/amd/gaussian/g16-A.03/g16/l401.exe)
 Initial guess from the checkpoint file:  "/scratch/rdu230/d3tales/high_throughput/runfiles//05XICU/gaussian/gas_phase/opt/opt_groundState.chk"
 B after Tr=    -0.000000   -0.000000    0.000000
         Rot=    0.999990   -0.000000   -0.000000    0.004501 Ang=   0.52 deg.
 Guess basis will be translated and rotated to current coordinates.
 JPrj=2 DoOrth=T DoCkMO=T.
 Initial guess orbital symmetries:
       Occupied  (A') (A') (A') (A') (A")
       Virtual   (A') (A') (A') (A') (A') (A") (A') (A') (A") (A')
                 (A") (A') (A') (A') (A") (A") (A') (A') (A')
 The electronic state of the initial guess is 1-A'.
 Generating alternative initial guess.
 ExpMin= 1.22D-01 ExpMax= 2.27D+03 ExpMxC= 3.41D+02 IAcc=2 IRadAn=         4 AccDes= 0.00D+00
 Harris functional with IExCor=33909 and IRadAn=       4 diagonalized for initial guess.
 HarFok:  IExCor=33909 AccDes= 0.00D+00 IRadAn=         4 IDoV= 1 UseB2=F ITyADJ=14
 ICtDFT=  3500011 ScaDFX=  1.000000  1.000000  1.000000  1.000000
 FoFCou: FMM=F IPFlag=           0 FMFlag=      100000 FMFlg1=           0
         NFxFlg=           0 DoJE=T BraDBF=F KetDBF=T FulRan=T
         wScrn=  0.000000 ICntrl=       500 IOpCl=  0 I1Cent=   200000004 NGrid=           0
         NMat0=    1 NMatS0=      1 NMatT0=    0 NMatD0=    1 NMtDS0=    0 NMtDT0=    0
 Petite list used in FoFCou.
 Harris En= -73.9175261283770    
 Leave Link  401 at Wed Aug 10 16:56:50 2022, MaxMem=  6442450944 cpu:               3.0 elap:               0.2
 (Enter /mnt/gpfs3_amd/share/apps/amd/gaussian/g16-A.03/g16/l502.exe)
 Keep R1 ints in memory in symmetry-blocked form, NReq=13884302.
 FoFCou: FMM=F IPFlag=           0 FMFlag=           0 FMFlg1=           0
         NFxFlg=           0 DoJE=F BraDBF=F KetDBF=F FulRan=T
         wScrn=  0.000000 ICntrl=       600 IOpCl=  0 I1Cent=           0 NGrid=           0
         NMat0=    1 NMatS0=    300 NMatT0=    0 NMatD0=    1 NMtDS0=    0 NMtDT0=    0
 Petite list used in FoFCou.
 Closed shell SCF:
 Using DIIS extrapolation, IDIIS=  1040.
 NGot=  6442450944 LenX=  6442423464 LenY=  6442422398
 Requested convergence on RMS density matrix=1.00D-08 within 512 cycles.
 Requested convergence on MAX density matrix=1.00D-06.
 Requested convergence on             energy=1.00D-06.
 No special actions if energy rises.
 Integral accuracy reduced to 1.0D-05 until final iterations.

 Cycle   1  Pass 0  IDiag  1:
 E= -76.3265174344347    
 DIIS: error= 5.93D-03 at cycle   1 NSaved=   1.
 NSaved= 1 IEnMin= 1 EnMin= -76.3265174344347     IErMin= 1 ErrMin= 5.93D-03
 ErrMax= 5.93D-03  0.00D+00 EMaxC= 1.00D-01 BMatC= 8.77D-04 BMatP= 8.77D-04
 IDIUse=3 WtCom= 9.41D-01 WtEn= 5.93D-02
 Coeff-Com:  0.100D+01
 Coeff-En:   0.100D+01
 Coeff:      0.100D+01
 Gap=     0.611 Goal=   None    Shift=    0.000
 GapD=    0.611 DampG=2.000 DampE=1.000 DampFc=2.0000 IDamp=-1.
 RMSDP=1.57D-03 MaxDP=1.01D-02              OVMax= 9.10D-03

 Cycle   2  Pass 0  IDiag  1:
 E= -76.3272557144250     Delta-E=       -0.000738279990 Rises=F Damp=F
 DIIS: error= 1.28D-03 at cycle   2 NSaved=   2.
 NSaved= 2 IEnMin= 2 EnMin= -76.3272557144250     IErMin= 2 ErrMin= 1.28D-03
 ErrMax= 1.28D-03  0.00D+00 EMaxC= 1.00D-01 BMatC= 4.55D-05 BMatP= 8.77D-04
 IDIUse=3 WtCom= 9.87D-01 WtEn= 1.28D-02
 Coeff-Com:  0.209D-03 0.100D+01
 Coeff-En:   0.000D+00 0.100D+01
 Coeff:      0.206D-03 0.100D+01
 Gap=     0.600 Goal=   None    Shift=    0.000
 RMSDP=3.34D-04 MaxDP=2.43D-03 DE=-7.38D-04 OVMax= 2.20D-03

 Cycle   3  Pass 0  IDiag  1:
 E= -76.3272829488197     Delta-E=       -0.000027234395 Rises=F Damp=F
 DIIS: error= 7.83D-04 at cycle   3 NSaved=   3.
 NSaved= 3 IEnMin= 3 EnMin= -76.3272829488197     IErMin= 3 ErrMin= 7.83D-04
 ErrMax= 7.83D-04  0.00D+00 EMaxC= 1.00D-01 BMatC= 1.95D-05 BMatP= 4.55D-05
 IDIUse=3 WtCom= 9.92D-01 WtEn= 7.83D-03
 Coeff-Com: -0.454D-01 0.398D+00 0.647D+00
 Coeff-En:   0.000D+00 0.000D+00 0.100D+01
 Coeff:     -0.450D-01 0.395D+00 0.650D+00
 Gap=     0.602 Goal=   None    Shift=    0.000
 RMSDP=1.23D-04 MaxDP=1.11D-03 DE=-2.72D-05 OVMax= 1.20D-03

 Cycle   4  Pass 0  IDiag  1:
 E= -76.3272969240090     Delta-E=       -0.000013975189 Rises=F Damp=F
 DIIS: error= 1.06D-04 at cycle   4 NSaved=   4.
 NSaved= 4 IEnMin= 4 EnMin= -76.3272969240090     IErMin= 4 ErrMin= 1.06D-04
 ErrMax= 1.06D-04  0.00D+00 EMaxC= 1.00D-01 BMatC= 3.53D-07 BMatP= 1.95D-05
 IDIUse=3 WtCom= 9.99D-01 WtEn= 1.06D-03
 Coeff-Com: -0.616D-02-0.157D-01 0.860D-01 0.936D+00
 Coeff-En:   0.000D+00 0.000D+00 0.000D+00 0.100D+01
 Coeff:     -0.615D-02-0.157D-01 0.859D-01 0.936D+00
 Gap=     0.602 Goal=   None    Shift=    0.000
 RMSDP=2.54D-05 MaxDP=1.76D-04 DE=-1.40D-05 OVMax= 3.13D-04

 Cycle   5  Pass 0  IDiag  1:
 E= -76.3272973344443     Delta-E=       -0.000000410435 Rises=F Damp=F
 DIIS: error= 2.40D-05 at cycle   5 NSaved=   5.
 NSaved= 5 IEnMin= 5 EnMin= -76.3272973344443     IErMin= 5 ErrMin= 2.40D-05
 ErrMax= 2.40D-05  0.00D+00 EMaxC= 1.00D-01 BMatC= 9.29D-09 BMatP= 3.53D-07
 IDIUse=1 WtCom= 1.00D+00 WtEn= 0.00D+00
 Coeff-Com:  0.256D-02-0.161D-01-0.299D-01-0.846D-01 0.113D+01
 Coeff:      0.256D-02-0.161D-01-0.299D-01-0.846D-01 0.113D+01
 Gap=     0.602 Goal=   None    Shift=    0.000
 RMSDP=1.01D-05 MaxDP=7.38D-05 DE=-4.10D-07 OVMax= 1.44D-04

 Cycle   6  Pass 0  IDiag  1:
 E= -76.3272973662748     Delta-E=       -0.000000031831 Rises=F Damp=F
 DIIS: error= 6.59D-06 at cycle   6 NSaved=   6.
 NSaved= 6 IEnMin= 6 EnMin= -76.3272973662748     IErMin= 6 ErrMin= 6.59D-06
 ErrMax= 6.59D-06  0.00D+00 EMaxC= 1.00D-01 BMatC= 6.49D-10 BMatP= 9.29D-09
 IDIUse=1 WtCom= 1.00D+00 WtEn= 0.00D+00
 Coeff-Com: -0.553D-03 0.472D-02 0.868D-02-0.663D-02-0.377D+00 0.137D+01
 Coeff:     -0.553D-03 0.472D-02 0.868D-02-0.663D-02-0.377D+00 0.137D+01
 Gap=     0.602 Goal=   None    Shift=    0.000
 RMSDP=3.40D-06 MaxDP=2.38D-05 DE=-3.18D-08 OVMax= 4.52D-05

 Initial convergence to 1.0D-05 achieved.  Increase integral accuracy.
 Cycle   7  Pass 1  IDiag  1:
 E= -76.3272979356702     Delta-E=       -0.000000569395 Rises=F Damp=F
 DIIS: error= 7.63D-07 at cycle   1 NSaved=   1.
 NSaved= 1 IEnMin= 1 EnMin= -76.3272979356702     IErMin= 1 ErrMin= 7.63D-07
 ErrMax= 7.63D-07  0.00D+00 EMaxC= 1.00D-01 BMatC= 1.05D-11 BMatP= 1.05D-11
 IDIUse=1 WtCom= 1.00D+00 WtEn= 0.00D+00
 Coeff-Com:  0.100D+01
 Coeff:      0.100D+01
 Gap=     0.602 Goal=   None    Shift=    0.000
 RMSDP=3.40D-06 MaxDP=2.38D-05 DE=-5.69D-07 OVMax= 2.43D-06

 Cycle   8  Pass 1  IDiag  1:
 E= -76.3272979356899     Delta-E=       -0.000000000020 Rises=F Damp=F
 DIIS: error= 3.14D-07 at cycle   2 NSaved=   2.
 NSaved= 2 IEnMin= 2 EnMin= -76.3272979356899     IErMin= 2 ErrMin= 3.14D-07
 ErrMax= 3.14D-07  0.00D+00 EMaxC= 1.00D-01 BMatC= 1.01D-12 BMatP= 1.05D-11
 IDIUse=1 WtCom= 1.00D+00 WtEn= 0.00D+00
 Coeff-Com: -0.151D+00 0.115D+01
 Coeff:     -0.151D+00 0.115D+01
 Gap=     0.602 Goal=   None    Shift=    0.000
 RMSDP=9.02D-08 MaxDP=7.64D-07 DE=-1.97D-11 OVMax= 1.25D-06

 Cycle   9  Pass 1  IDiag  1:
 E= -76.3272979356925     Delta-E=       -0.000000000003 Rises=F Damp=F
 DIIS: error= 9.89D-08 at cycle   3 NSaved=   3.
 NSaved= 3 IEnMin= 3 EnMin= -76.3272979356925     IErMin= 3 ErrMin= 9.89D-08
 ErrMax= 9.89D-08  0.00D+00 EMaxC= 1.00D-01 BMatC= 3.01D-13 BMatP= 1.01D-12
 IDIUse=1 WtCom= 1.00D+00 WtEn= 0.00D+00
 Coeff-Com: -0.132D+00 0.356D+00 0.776D+00
 Coeff:     -0.132D+00 0.356D+00 0.776D+00
 Gap=     0.602 Goal=   None    Shift=    0.000
 RMSDP=2.58D-08 MaxDP=2.02D-07 DE=-2.57D-12 OVMax= 2.95D-07

 Cycle  10  Pass 1  IDiag  1:
 E= -76.3272979356929     Delta-E=       -0.000000000000 Rises=F Damp=F
 DIIS: error= 3.45D-08 at cycle   4 NSaved=   4.
 NSaved= 4 IEnMin= 4 EnMin= -76.3272979356929     IErMin= 4 ErrMin= 3.45D-08
 ErrMax= 3.45D-08  0.00D+00 EMaxC= 1.00D-01 BMatC= 2.16D-14 BMatP= 3.01D-13
 IDIUse=1 WtCom= 1.00D+00 WtEn= 0.00D+00
 Coeff-Com: -0.138D-01-0.585D-01 0.162D+00 0.911D+00
 Coeff:     -0.138D-01-0.585D-01 0.162D+00 0.911D+00
 Gap=     0.602 Goal=   None    Shift=    0.000
 RMSDP=1.18D-08 MaxDP=9.99D-08 DE=-4.12D-13 OVMax= 1.67D-07

 Cycle  11  Pass 1  IDiag  1:
 E= -76.3272979356930     Delta-E=       -0.000000000000 Rises=F Damp=F
 DIIS: error= 5.97D-09 at cycle   5 NSaved=   5.
 NSaved= 5 IEnMin= 5 EnMin= -76.3272979356930     IErMin= 5 ErrMin= 5.97D-09
 ErrMax= 5.97D-09  0.00D+00 EMaxC= 1.00D-01 BMatC= 1.05D-15 BMatP= 2.16D-14
 IDIUse=1 WtCom= 1.00D+00 WtEn= 0.00D+00
 Coeff-Com:  0.102D-01-0.257D-01-0.741D-01 0.136D-01 0.108D+01
 Coeff:      0.102D-01-0.257D-01-0.741D-01 0.136D-01 0.108D+01
 Gap=     0.602 Goal=   None    Shift=    0.000
 RMSDP=3.03D-09 MaxDP=1.87D-08 DE=-1.56D-13 OVMax= 4.13D-08

 SCF Done:  E(RLC-wHPBE) =  -76.3272979357     A.U. after   11 cycles
            NFock= 11  Conv=0.30D-08     -V/T= 2.0074
 KE= 7.576727501970D+01 PE=-1.989388740508D+02 EE= 3.762875975850D+01
 Leave Link  502 at Wed Aug 10 16:56:51 2022, MaxMem=  6442450944 cpu:              14.7 elap:               1.0
 (Enter /mnt/gpfs3_amd/share/apps/amd/gaussian/g16-A.03/g16/l701.exe)
 ... and contract with generalized density number  0.
 Compute integral first derivatives.
   2 Symmetry operations used in ECPInt.
 ECPInt:  NShTT=      78 NPrTT=     272 LenC2=      79 LenP2D=     271.
 LDataN:  DoStor=T MaxTD1= 5 Len=  102
 Leave Link  701 at Wed Aug 10 16:56:51 2022, MaxMem=  6442450944 cpu:               1.8 elap:               0.1
 (Enter /mnt/gpfs3_amd/share/apps/amd/gaussian/g16-A.03/g16/l702.exe)
 L702 exits ... SP integral derivatives will be done elsewhere.
 Leave Link  702 at Wed Aug 10 16:56:51 2022, MaxMem=  6442450944 cpu:               0.2 elap:               0.0
 (Enter /mnt/gpfs3_amd/share/apps/amd/gaussian/g16-A.03/g16/l703.exe)
 Integral derivatives from FoFJK, PRISM(SPDF).
 Compute integral first derivatives, UseDBF=F ICtDFT=           0.
 Calling FoFJK, ICntrl=      2127 FMM=F ISym2X=1 I1Cent= 0 IOpClX= 0 NMat=1 NMatS=1 NMatT=0.
 FoFJK:  IHMeth= 1 ICntrl=    2127 DoSepK=T KAlg= 0 I1Cent=           0 FoldK=F
 IRaf=         1 NMat=       1 IRICut=       1 DoRegI=T DoRafI=F ISym2E= 1 IDoP0=0 IntGTp=1.
 FoFCou: FMM=F IPFlag=           0 FMFlag=      100000 FMFlg1=         800
         NFxFlg=           0 DoJE=F BraDBF=F KetDBF=F FulRan=T
         wScrn=  0.000000 ICntrl=      2527 IOpCl=  0 I1Cent=           0 NGrid=           0
         NMat0=    1 NMatS0=      1 NMatT0=    0 NMatD0=    1 NMtDS0=    0 NMtDT0=    0
 Petite list used in FoFCou.
 Leave Link  703 at Wed Aug 10 16:56:51 2022, MaxMem=  6442450944 cpu:               6.5 elap:               0.4
 (Enter /mnt/gpfs3_amd/share/apps/amd/gaussian/g16-A.03/g16/l716.exe)
 Dipole        =-2.04730317D-04-8.21412599D-01 1.17100410D-35
 ***** Axes restored to original set *****
 -------------------------------------------------------------------
 Center     Atomic                   Forces (Hartrees/Bohr)
 Number     Number              X              Y              Z
 -------------------------------------------------------------------
      1        8          -0.000758209    0.002396335   -0.000000000
      2        1          -0.002949468   -0.000919739   -0.000000000
      3        1           0.003707677   -0.001476595    0.000000000
 -------------------------------------------------------------------
 Cartesian Forces:  Max     0.003707677 RMS     0.001879414
 Leave Link  716 at Wed Aug 10 16:56:52 2022, MaxMem=  6442450944 cpu:               0.2 elap:               0.0
 (Enter /mnt/gpfs3_amd/share/apps/amd/gaussian/g16-A.03/g16/l103.exe)

 GradGradGradGradGradGradGradGradGradGradGradGradGradGradGradGradGradGrad
 Berny optimization.
 Using GEDIIS/GDIIS optimizer.
 FormGI is forming the generalized inverse of G from B-inverse, IUseBI=4.
 Internal  Forces:  Max     0.003832949 RMS     0.003001466
 Search for a local minimum.
 Step number   2 out of a maximum of   20
 All quantities printed in internal units (Hartrees-Bohrs-Radians)
 RMS Force = .30015D-02 SwitMx=.10000D-02 MixMth= 1
 Mixed Optimization -- RFO/linear search
 Update second derivatives using D2CorX and points    1    2
 DE= -2.08D-03 DEPred=-2.30D-03 R= 9.05D-01
 TightC=F SS=  1.41D+00  RLast= 1.15D-01 DXNew= 5.0454D-01 3.4520D-01
 Trust test= 9.05D-01 RLast= 1.15D-01 DXMaxT set to 3.45D-01
 The second derivative matrix:
                          R1        R2        A1
           R1           0.52876
           R2           0.02057   0.51918
           A1           0.01199   0.01635   0.16849
 ITU=  1  0
 Use linear search instead of GDIIS.
     Eigenvalues ---    0.16739   0.50293   0.54611
 RFO step:  Lambda=-4.20090281D-07 EMin= 1.67387528D-01
 Quartic linear search produced a step of -0.09981.
 Iteration  1 RMS(Cart)=  0.00789664 RMS(Int)=  0.00002268
 Iteration  2 RMS(Cart)=  0.00001514 RMS(Int)=  0.00000000
 Iteration  3 RMS(Cart)=  0.00000000 RMS(Int)=  0.00000000
 ITry= 1 IFail=0 DXMaxC= 9.79D-03 DCOld= 1.00D+10 DXMaxT= 3.45D-01 DXLimC= 3.00D+00 Rises=F
 ClnCor:  largest displacement from symmetrization is 1.11D-16 for atom     2.
 Variable       Old X    -DE/DX   Delta X   Delta X   Delta X     New X
                                 (Linear)    (Quad)   (Total)
    R1        1.80598   0.00288   0.00464   0.00003   0.00467   1.81064
    R2        1.80438   0.00383   0.00695  -0.00054   0.00641   1.81079
    A1        1.81033   0.00201   0.00789   0.00132   0.00920   1.81954
         Item               Value     Threshold  Converged?
 Maximum Force            0.003833     0.000450     NO 
 RMS     Force            0.003001     0.000300     NO 
 Maximum Displacement     0.009788     0.001800     NO 
 RMS     Displacement     0.007900     0.001200     NO 
 Predicted change in Energy=-3.082832D-05
 Lowest energy point so far.  Saving SCF results.
 GradGradGradGradGradGradGradGradGradGradGradGradGradGradGradGradGradGrad

 Leave Link  103 at Wed Aug 10 16:56:52 2022, MaxMem=  6442450944 cpu:               0.1 elap:               0.0
 (Enter /mnt/gpfs3_amd/share/apps/amd/gaussian/g16-A.03/g16/l202.exe)
                          Input orientation:                          
 ---------------------------------------------------------------------
 Center     Atomic      Atomic             Coordinates (Angstroms)
 Number     Number       Type             X           Y           Z
 ---------------------------------------------------------------------
      1          8           0       -0.001816    0.392169   -0.000000
      2          1           0       -0.755443   -0.199523   -0.000000
      3          1           0        0.757259   -0.192647    0.000000
 ---------------------------------------------------------------------
                    Distance matrix (angstroms):
                    1          2          3
     1  O    0.000000
     2  H    0.958151   0.000000
     3  H    0.958229   1.512718   0.000000
 Stoichiometry    H2O
 Framework group  CS[SG(H2O)]
 Deg. of freedom     3
 Full point group                 CS      NOp   2
 RotChk:  IX=0 Diff= 1.17D-03
 Largest Abelian subgroup         CS      NOp   2
 Largest concise Abelian subgroup C1      NOp   1
                         Standard orientation:                         
 ---------------------------------------------------------------------
 Center     Atomic      Atomic             Coordinates (Angstroms)
 Number     Number       Type             X           Y           Z
 ---------------------------------------------------------------------
      1          8           0        0.000000    0.117652    0.000000
      2          1           0        0.756359   -0.470544    0.000000
      3          1           0       -0.756359   -0.470672   -0.000000
 ---------------------------------------------------------------------
 Rotational constants (GHZ):         815.8466974         438.2745697         285.1118705
 Leave Link  202 at Wed Aug 10 16:56:52 2022, MaxMem=  6442450944 cpu:               0.0 elap:               0.0
 (Enter /mnt/gpfs3_amd/share/apps/amd/gaussian/g16-A.03/g16/l301.exe)
 Standard basis: def2SVP (5D, 7F)
 Ernie: Thresh=  0.10000D-02 Tol=  0.10000D-05 Strict=F.
 There are    19 symmetry adapted cartesian basis functions of A'  symmetry.
 There are     6 symmetry adapted cartesian basis functions of A"  symmetry.
 There are    18 symmetry adapted basis functions of A'  symmetry.
 There are     6 symmetry adapted basis functions of A"  symmetry.
    24 basis functions,    39 primitive gaussians,    25 cartesian basis functions
     5 alpha electrons        5 beta electrons
       nuclear repulsion energy         9.1860958864 Hartrees.
 IExCor=33909 DFT=T Ex+Corr=LC-wHPBE ExCW=0 ScaHFX=  1.000000
 ScaDFX=  1.000000  1.000000  1.000000  1.000000 ScalE2=  1.000000  1.000000
 IRadAn=      5 IRanWt=     -1 IRanGd=            0 ICorTp=0 IEmpDi=  4
 HFx  wShort=  0.000000 wLong=  0.499400 cFull=  0.000000 cShort=  0.000000 cLong=  1.000000
 DFx  wShort=  0.000000 wLong=  0.499400 cFull=  0.000000 cShort=  1.000000 cLong=  0.000000
 NAtoms=    3 NActive=    3 NUniq=    3 SFac= 1.00D+00 NAtFMM=   60 NAOKFM=F Big=F
 Integral buffers will be    131072 words long.
 Raffenetti 2 integral format.
 Two-electron integral symmetry is turned on.
 Leave Link  301 at Wed Aug 10 16:56:52 2022, MaxMem=  6442450944 cpu:               0.4 elap:               0.0
 (Enter /mnt/gpfs3_amd/share/apps/amd/gaussian/g16-A.03/g16/l302.exe)
 NPDir=0 NMtPBC=     1 NCelOv=     1 NCel=       1 NClECP=     1 NCelD=      1
         NCelK=      1 NCelE2=     1 NClLst=     1 CellRange=     0.0.
 One-electron integrals computed using PRISM.
 One-electron integral symmetry used in STVInt
   2 Symmetry operations used in ECPInt.
 ECPInt:  NShTT=      78 NPrTT=     272 LenC2=      79 LenP2D=     271.
 LDataN:  DoStor=T MaxTD1= 4 Len=   56
 NBasis=    24 RedAO= T EigKep=  3.75D-02  NBF=    18     6
 NBsUse=    24 1.00D-06 EigRej= -1.00D+00 NBFU=    18     6
 Precomputing XC quadrature grid using
 IXCGrd= 4 IRadAn=           5 IRanWt=          -1 IRanGd=           0 AccXCQ= 0.00D+00.
 Generated NRdTot=       0 NPtTot=           0 NUsed=           0 NTot=          32
 NSgBfM=    25    25    25    25    25 MxSgAt=     3 MxSgA2=     3.
 Leave Link  302 at Wed Aug 10 16:56:52 2022, MaxMem=  6442450944 cpu:               2.7 elap:               0.2
 (Enter /mnt/gpfs3_amd/share/apps/amd/gaussian/g16-A.03/g16/l303.exe)
 DipDrv:  MaxL=1.
 Leave Link  303 at Wed Aug 10 16:56:52 2022, MaxMem=  6442450944 cpu:               0.2 elap:               0.0
 (Enter /mnt/gpfs3_amd/share/apps/amd/gaussian/g16-A.03/g16/l401.exe)
 Initial guess from the checkpoint file:  "/scratch/rdu230/d3tales/high_throughput/runfiles//05XICU/gaussian/gas_phase/opt/opt_groundState.chk"
 B after Tr=     0.000000    0.000000    0.000000
         Rot=    1.000000   -0.000000   -0.000000   -0.000333 Ang=  -0.04 deg.
 Guess basis will be translated and rotated to current coordinates.
 JPrj=2 DoOrth=T DoCkMO=T.
 Initial guess orbital symmetries:
       Occupied  (A') (A') (A') (A') (A")
       Virtual   (A') (A') (A') (A') (A') (A") (A') (A') (A") (A')
                 (A") (A') (A') (A') (A") (A") (A') (A') (A')
 The electronic state of the initial guess is 1-A'.
 Leave Link  401 at Wed Aug 10 16:56:52 2022, MaxMem=  6442450944 cpu:               1.2 elap:               0.1
 (Enter /mnt/gpfs3_amd/share/apps/amd/gaussian/g16-A.03/g16/l502.exe)
 Keep R1 ints in memory in symmetry-blocked form, NReq=13884302.
 FoFCou: FMM=F IPFlag=           0 FMFlag=           0 FMFlg1=           0
         NFxFlg=           0 DoJE=F BraDBF=F KetDBF=F FulRan=T
         wScrn=  0.000000 ICntrl=       600 IOpCl=  0 I1Cent=           0 NGrid=           0
         NMat0=    1 NMatS0=    300 NMatT0=    0 NMatD0=    1 NMtDS0=    0 NMtDT0=    0
 Petite list used in FoFCou.
 Closed shell SCF:
 Using DIIS extrapolation, IDIIS=  1040.
 NGot=  6442450944 LenX=  6442423464 LenY=  6442422398
 Requested convergence on RMS density matrix=1.00D-08 within 512 cycles.
 Requested convergence on MAX density matrix=1.00D-06.
 Requested convergence on             energy=1.00D-06.
 No special actions if energy rises.

 Cycle   1  Pass 1  IDiag  1:
 E= -76.3273172510518    
 DIIS: error= 5.98D-04 at cycle   1 NSaved=   1.
 NSaved= 1 IEnMin= 1 EnMin= -76.3273172510518     IErMin= 1 ErrMin= 5.98D-04
 ErrMax= 5.98D-04  0.00D+00 EMaxC= 1.00D-01 BMatC= 9.99D-06 BMatP= 9.99D-06
 IDIUse=3 WtCom= 9.94D-01 WtEn= 5.98D-03
 Coeff-Com:  0.100D+01
 Coeff-En:   0.100D+01
 Coeff:      0.100D+01
 Gap=     0.601 Goal=   None    Shift=    0.000
 RMSDP=1.73D-04 MaxDP=1.02D-03              OVMax= 1.00D-03

 Cycle   2  Pass 1  IDiag  1:
 E= -76.3273258791991     Delta-E=       -0.000008628147 Rises=F Damp=F
 DIIS: error= 1.19D-04 at cycle   2 NSaved=   2.
 NSaved= 2 IEnMin= 2 EnMin= -76.3273258791991     IErMin= 2 ErrMin= 1.19D-04
 ErrMax= 1.19D-04  0.00D+00 EMaxC= 1.00D-01 BMatC= 4.15D-07 BMatP= 9.99D-06
 IDIUse=3 WtCom= 9.99D-01 WtEn= 1.19D-03
 Coeff-Com: -0.358D-01 0.104D+01
 Coeff-En:   0.000D+00 0.100D+01
 Coeff:     -0.357D-01 0.104D+01
 Gap=     0.601 Goal=   None    Shift=    0.000
 RMSDP=3.56D-05 MaxDP=2.15D-04 DE=-8.63D-06 OVMax= 2.37D-04

 Cycle   3  Pass 1  IDiag  1:
 E= -76.3273261641646     Delta-E=       -0.000000284966 Rises=F Damp=F
 DIIS: error= 7.61D-05 at cycle   3 NSaved=   3.
 NSaved= 3 IEnMin= 3 EnMin= -76.3273261641646     IErMin= 3 ErrMin= 7.61D-05
 ErrMax= 7.61D-05  0.00D+00 EMaxC= 1.00D-01 BMatC= 1.79D-07 BMatP= 4.15D-07
 IDIUse=1 WtCom= 1.00D+00 WtEn= 0.00D+00
 Coeff-Com: -0.505D-01 0.413D+00 0.638D+00
 Coeff:     -0.505D-01 0.413D+00 0.638D+00
 Gap=     0.601 Goal=   None    Shift=    0.000
 RMSDP=1.16D-05 MaxDP=1.05D-04 DE=-2.85D-07 OVMax= 1.10D-04

 Cycle   4  Pass 1  IDiag  1:
 E= -76.3273262905682     Delta-E=       -0.000000126404 Rises=F Damp=F
 DIIS: error= 9.79D-06 at cycle   4 NSaved=   4.
 NSaved= 4 IEnMin= 4 EnMin= -76.3273262905682     IErMin= 4 ErrMin= 9.79D-06
 ErrMax= 9.79D-06  0.00D+00 EMaxC= 1.00D-01 BMatC= 3.14D-09 BMatP= 1.79D-07
 IDIUse=1 WtCom= 1.00D+00 WtEn= 0.00D+00
 Coeff-Com: -0.468D-02-0.197D-01 0.804D-01 0.944D+00
 Coeff:     -0.468D-02-0.197D-01 0.804D-01 0.944D+00
 Gap=     0.601 Goal=   None    Shift=    0.000
 RMSDP=2.39D-06 MaxDP=1.51D-05 DE=-1.26D-07 OVMax= 2.70D-05

 Cycle   5  Pass 1  IDiag  1:
 E= -76.3273262939824     Delta-E=       -0.000000003414 Rises=F Damp=F
 DIIS: error= 1.76D-06 at cycle   5 NSaved=   5.
 NSaved= 5 IEnMin= 5 EnMin= -76.3273262939824     IErMin= 5 ErrMin= 1.76D-06
 ErrMax= 1.76D-06  0.00D+00 EMaxC= 1.00D-01 BMatC= 6.55D-11 BMatP= 3.14D-09
 IDIUse=1 WtCom= 1.00D+00 WtEn= 0.00D+00
 Coeff-Com:  0.208D-02-0.145D-01-0.222D-01-0.313D-01 0.107D+01
 Coeff:      0.208D-02-0.145D-01-0.222D-01-0.313D-01 0.107D+01
 Gap=     0.601 Goal=   None    Shift=    0.000
 RMSDP=7.65D-07 MaxDP=5.50D-06 DE=-3.41D-09 OVMax= 1.07D-05

 Cycle   6  Pass 1  IDiag  1:
 E= -76.3273262941800     Delta-E=       -0.000000000198 Rises=F Damp=F
 DIIS: error= 5.77D-07 at cycle   6 NSaved=   6.
 NSaved= 6 IEnMin= 6 EnMin= -76.3273262941800     IErMin= 6 ErrMin= 5.77D-07
 ErrMax= 5.77D-07  0.00D+00 EMaxC= 1.00D-01 BMatC= 4.98D-12 BMatP= 6.55D-11
 IDIUse=1 WtCom= 1.00D+00 WtEn= 0.00D+00
 Coeff-Com: -0.502D-03 0.455D-02 0.690D-02-0.185D-01-0.363D+00 0.137D+01
 Coeff:     -0.502D-03 0.455D-02 0.690D-02-0.185D-01-0.363D+00 0.137D+01
 Gap=     0.601 Goal=   None    Shift=    0.000
 RMSDP=2.94D-07 MaxDP=1.99D-06 DE=-1.98D-10 OVMax= 3.95D-06

 Cycle   7  Pass 1  IDiag  1:
 E= -76.3273262941983     Delta-E=       -0.000000000018 Rises=F Damp=F
 DIIS: error= 8.98D-08 at cycle   7 NSaved=   7.
 NSaved= 7 IEnMin= 7 EnMin= -76.3273262941983     IErMin= 7 ErrMin= 8.98D-08
 ErrMax= 8.98D-08  0.00D+00 EMaxC= 1.00D-01 BMatC= 9.68D-14 BMatP= 4.98D-12
 IDIUse=1 WtCom= 1.00D+00 WtEn= 0.00D+00
 Coeff-Com:  0.260D-04-0.453D-03-0.338D-03 0.546D-02 0.299D-01-0.245D+00
 Coeff-Com:  0.121D+01
 Coeff:      0.260D-04-0.453D-03-0.338D-03 0.546D-02 0.299D-01-0.245D+00
 Coeff:      0.121D+01
 Gap=     0.601 Goal=   None    Shift=    0.000
 RMSDP=3.72D-08 MaxDP=2.88D-07 DE=-1.83D-11 OVMax= 4.94D-07

 Cycle   8  Pass 1  IDiag  1:
 E= -76.3273262941984     Delta-E=       -0.000000000000 Rises=F Damp=F
 DIIS: error= 7.93D-09 at cycle   8 NSaved=   8.
 NSaved= 8 IEnMin= 8 EnMin= -76.3273262941984     IErMin= 8 ErrMin= 7.93D-09
 ErrMax= 7.93D-09  0.00D+00 EMaxC= 1.00D-01 BMatC= 2.02D-15 BMatP= 9.68D-14
 IDIUse=1 WtCom= 1.00D+00 WtEn= 0.00D+00
 Coeff-Com:  0.168D-04-0.168D-03-0.216D-03 0.963D-03 0.130D-01-0.589D-01
 Coeff-Com:  0.834D-01 0.962D+00
 Coeff:      0.168D-04-0.168D-03-0.216D-03 0.963D-03 0.130D-01-0.589D-01
 Coeff:      0.834D-01 0.962D+00
 Gap=     0.601 Goal=   None    Shift=    0.000
 RMSDP=3.03D-09 MaxDP=1.95D-08 DE=-9.95D-14 OVMax= 3.93D-08

 SCF Done:  E(RLC-wHPBE) =  -76.3273262942     A.U. after    8 cycles
            NFock=  8  Conv=0.30D-08     -V/T= 2.0075
 KE= 7.575608261442D+01 PE=-1.988776456486D+02 EE= 3.760814085361D+01
 Leave Link  502 at Wed Aug 10 16:56:53 2022, MaxMem=  6442450944 cpu:              12.0 elap:               0.8
 (Enter /mnt/gpfs3_amd/share/apps/amd/gaussian/g16-A.03/g16/l701.exe)
 ... and contract with generalized density number  0.
 Compute integral first derivatives.
   2 Symmetry operations used in ECPInt.
 ECPInt:  NShTT=      78 NPrTT=     272 LenC2=      79 LenP2D=     271.
 LDataN:  DoStor=T MaxTD1= 5 Len=  102
 Leave Link  701 at Wed Aug 10 16:56:53 2022, MaxMem=  6442450944 cpu:               2.0 elap:               0.1
 (Enter /mnt/gpfs3_amd/share/apps/amd/gaussian/g16-A.03/g16/l702.exe)
 L702 exits ... SP integral derivatives will be done elsewhere.
 Leave Link  702 at Wed Aug 10 16:56:53 2022, MaxMem=  6442450944 cpu:               0.2 elap:               0.0
 (Enter /mnt/gpfs3_amd/share/apps/amd/gaussian/g16-A.03/g16/l703.exe)
 Integral derivatives from FoFJK, PRISM(SPDF).
 Compute integral first derivatives, UseDBF=F ICtDFT=           0.
 Calling FoFJK, ICntrl=      2127 FMM=F ISym2X=1 I1Cent= 0 IOpClX= 0 NMat=1 NMatS=1 NMatT=0.
 FoFJK:  IHMeth= 1 ICntrl=    2127 DoSepK=T KAlg= 0 I1Cent=           0 FoldK=F
 IRaf=         1 NMat=       1 IRICut=       1 DoRegI=T DoRafI=F ISym2E= 1 IDoP0=0 IntGTp=1.
 FoFCou: FMM=F IPFlag=           0 FMFlag=      100000 FMFlg1=         800
         NFxFlg=           0 DoJE=F BraDBF=F KetDBF=F FulRan=T
         wScrn=  0.000000 ICntrl=      2527 IOpCl=  0 I1Cent=           0 NGrid=           0
         NMat0=    1 NMatS0=      1 NMatT0=    0 NMatD0=    1 NMtDS0=    0 NMtDT0=    0
 Petite list used in FoFCou.
 Leave Link  703 at Wed Aug 10 16:56:54 2022, MaxMem=  6442450944 cpu:               9.8 elap:               0.7
 (Enter /mnt/gpfs3_amd/share/apps/amd/gaussian/g16-A.03/g16/l716.exe)
 Dipole        = 1.88760556D-05-8.19625013D-01 4.07301925D-33
 ***** Axes restored to original set *****
 -------------------------------------------------------------------
 Center     Atomic                   Forces (Hartrees/Bohr)
 Number     Number              X              Y              Z
 -------------------------------------------------------------------
      1        8           0.000069885   -0.000355725   -0.000000000
      2        1          -0.000001544    0.000151474    0.000000000
      3        1          -0.000068342    0.000204251    0.000000000
 -------------------------------------------------------------------
 Cartesian Forces:  Max     0.000355725 RMS     0.000149354
 Leave Link  716 at Wed Aug 10 16:56:54 2022, MaxMem=  6442450944 cpu:               0.2 elap:               0.0
 (Enter /mnt/gpfs3_amd/share/apps/amd/gaussian/g16-A.03/g16/l103.exe)

 GradGradGradGradGradGradGradGradGradGradGradGradGradGradGradGradGradGrad
 Berny optimization.
 Using GEDIIS/GDIIS optimizer.
 FormGI is forming the generalized inverse of G from B-inverse, IUseBI=4.
 Internal  Forces:  Max     0.000217453 RMS     0.000171053
 Search for a local minimum.
 Step number   3 out of a maximum of   20
 All quantities printed in internal units (Hartrees-Bohrs-Radians)
 RMS Force = .17105D-03 SwitMx=.10000D-02 MixMth= 2
 Mixed Optimization -- En-DIIS/RFO-DIIS
 Update second derivatives using D2CorX and points    1    2    3
 DE= -2.84D-05 DEPred=-3.08D-05 R= 9.20D-01
 TightC=F SS=  1.41D+00  RLast= 1.21D-02 DXNew= 5.8055D-01 3.6440D-02
 Trust test= 9.20D-01 RLast= 1.21D-02 DXMaxT set to 3.45D-01
 The second derivative matrix:
                          R1        R2        A1
           R1           0.54353
           R2           0.04473   0.55723
           A1           0.01652   0.02522   0.16838
 ITU=  1  1  0
 Use linear search instead of GDIIS.
     Eigenvalues ---    0.16626   0.50518   0.59771
 RFO step:  Lambda=-3.76461892D-07 EMin= 1.66255526D-01
 Quartic linear search produced a step of  0.00765.
 Iteration  1 RMS(Cart)=  0.00069997 RMS(Int)=  0.00000036
 Iteration  2 RMS(Cart)=  0.00000036 RMS(Int)=  0.00000000
 ITry= 1 IFail=0 DXMaxC= 7.63D-04 DCOld= 1.00D+10 DXMaxT= 3.45D-01 DXLimC= 3.00D+00 Rises=F
 ClnCor:  largest displacement from symmetrization is 5.24D-16 for atom     2.
 Variable       Old X    -DE/DX   Delta X   Delta X   Delta X     New X
                                 (Linear)    (Quad)   (Total)
    R1        1.81064  -0.00009   0.00004  -0.00022  -0.00018   1.81046
    R2        1.81079  -0.00018   0.00005  -0.00042  -0.00037   1.81042
    A1        1.81954   0.00022   0.00007   0.00130   0.00137   1.82090
         Item               Value     Threshold  Converged?
 Maximum Force            0.000217     0.000450     YES
 RMS     Force            0.000171     0.000300     YES
 Maximum Displacement     0.000763     0.001800     YES
 RMS     Displacement     0.000700     0.001200     YES
 Predicted change in Energy=-1.896013D-07
 Optimization completed.
    -- Stationary point found.
                           ----------------------------
                           !   Optimized Parameters   !
                           ! (Angstroms and Degrees)  !
 --------------------------                            --------------------------
 ! Name  Definition              Value          Derivative Info.                !
 --------------------------------------------------------------------------------
 ! R1    R(1,2)                  0.9582         -DE/DX =   -0.0001              !
 ! R2    R(1,3)                  0.9582         -DE/DX =   -0.0002              !
 ! A1    A(2,1,3)              104.2518         -DE/DX =    0.0002              !
 --------------------------------------------------------------------------------
 Lowest energy point so far.  Saving SCF results.
 Largest change from initial coordinates is atom    2       0.043 Angstoms.
 GradGradGradGradGradGradGradGradGradGradGradGradGradGradGradGradGradGrad

 Leave Link  103 at Wed Aug 10 16:56:54 2022, MaxMem=  6442450944 cpu:               0.1 elap:               0.0
 (Enter /mnt/gpfs3_amd/share/apps/amd/gaussian/g16-A.03/g16/l202.exe)
                          Input orientation:                          
 ---------------------------------------------------------------------
 Center     Atomic      Atomic             Coordinates (Angstroms)
 Number     Number       Type             X           Y           Z
 ---------------------------------------------------------------------
      1          8           0       -0.001816    0.392169   -0.000000
      2          1           0       -0.755443   -0.199523    0.000000
      3          1           0        0.757259   -0.192647   -0.000000
 ---------------------------------------------------------------------
                    Distance matrix (angstroms):
                    1          2          3
     1  O    0.000000
     2  H    0.958151   0.000000
     3  H    0.958229   1.512718   0.000000
 Stoichiometry    H2O
 Framework group  CS[SG(H2O)]
 Deg. of freedom     3
 Full point group                 CS      NOp   2
 RotChk:  IX=0 Diff= 2.95D-16
 Largest Abelian subgroup         CS      NOp   2
 Largest concise Abelian subgroup C1      NOp   1
                         Standard orientation:                         
 ---------------------------------------------------------------------
 Center     Atomic      Atomic             Coordinates (Angstroms)
 Number     Number       Type             X           Y           Z
 ---------------------------------------------------------------------
      1          8           0        0.000000    0.117652    0.000000
      2          1           0        0.756359   -0.470544    0.000000
      3          1           0       -0.756359   -0.470672   -0.000000
 ---------------------------------------------------------------------
 Rotational constants (GHZ):         815.8466974         438.2745697         285.1118705
 Leave Link  202 at Wed Aug 10 16:56:54 2022, MaxMem=  6442450944 cpu:               0.1 elap:               0.0
 (Enter /mnt/gpfs3_amd/share/apps/amd/gaussian/g16-A.03/g16/l601.exe)
 Copying SCF densities to generalized density rwf, IOpCl= 0 IROHF=0.

 **********************************************************************

            Population analysis using the SCF density.

 **********************************************************************

 Orbital symmetries:
       Occupied  (A') (A') (A') (A') (A")
       Virtual   (A') (A') (A') (A') (A') (A") (A') (A') (A") (A')
                 (A") (A') (A') (A') (A") (A") (A') (A') (A')
 The electronic state is 1-A'.
 Alpha  occ. eigenvalues --  -19.00718  -1.15660  -0.66602  -0.51576  -0.44315
 Alpha virt. eigenvalues --    0.15792   0.23427   0.70002   0.76443   1.07036
 Alpha virt. eigenvalues --    1.07719   1.15127   1.23286   1.48551   1.54983
 Alpha virt. eigenvalues --    1.69199   1.93705   2.37481   2.41669   3.11249
 Alpha virt. eigenvalues --    3.16002   3.34309   3.65225   3.97374
          Condensed to atoms (all electrons):
               1          2          3
     1  O    7.621784   0.342813   0.342794
     2  H    0.342813   0.533784  -0.030277
     3  H    0.342794  -0.030277   0.533770
 Mulliken charges:
               1
     1  O   -0.307392
     2  H    0.153680
     3  H    0.153713
 Sum of Mulliken charges =   0.00000
 Mulliken charges with hydrogens summed into heavy atoms:
               1
     1  O    0.000000
 Electronic spatial extent (au):  <R**2>=             18.7866
 Charge=              0.0000 electrons
 Dipole moment (field-independent basis, Debye):
    X=              0.0000    Y=             -2.0833    Z=             -0.0000  Tot=              2.0833
 Quadrupole moment (field-independent basis, Debye-Ang):
   XX=             -4.2154   YY=             -5.9192   ZZ=             -6.9790
   XY=              0.0002   XZ=              0.0000   YZ=              0.0000
 Traceless Quadrupole moment (field-independent basis, Debye-Ang):
   XX=              1.4891   YY=             -0.2146   ZZ=             -1.2745
   XY=              0.0002   XZ=              0.0000   YZ=              0.0000
 Octapole moment (field-independent basis, Debye-Ang**2):
  XXX=              0.0001  YYY=             -1.2082  ZZZ=             -0.0000  XYY=             -0.0001
  XXY=             -1.2035  XXZ=             -0.0000  XZZ=              0.0001  YZZ=             -0.3175
  YYZ=             -0.0000  XYZ=             -0.0000
 Hexadecapole moment (field-independent basis, Debye-Ang**3):
 XXXX=             -5.7670 YYYY=             -5.9559 ZZZZ=             -4.7949 XXXY=             -0.0000
 XXXZ=              0.0000 YYYX=             -0.0000 YYYZ=              0.0000 ZZZX=             -0.0000
 ZZZY=              0.0000 XXYY=             -1.6231 XXZZ=             -2.0275 YYZZ=             -1.8446
 XXYZ=              0.0000 YYXZ=              0.0000 ZZXY=             -0.0001
 N-N= 9.186095886384D+00 E-N=-1.988776456622D+02  KE= 7.575608261442D+01
 Symmetry A'   KE= 7.112546268405D+01
 Symmetry A"   KE= 4.630619930377D+00
 No NMR shielding tensors so no spin-rotation constants.
 Leave Link  601 at Wed Aug 10 16:56:54 2022, MaxMem=  6442450944 cpu:               4.2 elap:               0.3
 (Enter /mnt/gpfs3_amd/share/apps/amd/gaussian/g16-A.03/g16/l9999.exe)

 Test job not archived.
 1\1\GINC-ROME108\FOpt\RLC-wHPBE\def2SVP\H2O1\RDU230\10-Aug-2022\0\\#P 
 LC-wHPBE/Def2SVP iop(3/107=0499400000, 3/108=0499400000) opt scf(maxcy
 c=512)\\H2 O1\\0,1\O,-0.0018155905,0.3921692543,0.\H,-0.7554432411,-0.
 1995225189,0.\H,0.7572588316,-0.1926467354,0.\\Version=AM64L-G16RevA.0
 3\State=1-A'\HF=-76.3273263\RMSD=3.034e-09\RMSF=1.494e-04\Dipole=0.003
 7756,-0.8196163,0.\Quadrupole=1.1071193,-0.15956,-0.9475593,0.0057182,
 0.,0.\PG=CS [SG(H2O1)]\\@


 IT IS A CAPITAL MISTAKE TO THEORIZE BEFORE ONE HAS
 DATA.  INSENSIBLY ONE BEGINS TO TWIST FACTS TO SUIT
 THEORIES RATHER THAN THEORIES TO SUIT FACTS.

                                         -- SHERLOCK HOLMES
 Job cpu time:       0 days  0 hours  1 minutes 37.1 seconds.
 Elapsed time:       0 days  0 hours  0 minutes  6.9 seconds.
 File lengths (MBytes):  RWF=    136 Int=      0 D2E=      0 Chk=     16 Scr=     16
 Normal termination of Gaussian 16 at Wed Aug 10 16:56:54 2022.
