 Entering Gaussian System, Link 0=/mnt/gpfs3_amd/share/apps/amd/gaussian/g16-A.03/g16/g16
 Input=/scratch/rdu230/d3tales/high_throughput/runfiles//05XICU/gaussian_hf/gas_phase/opt/freq_opt_cation2.com
 Output=/scratch/rdu230/d3tales/high_throughput/runfiles//05XICU/gaussian_hf/gas_phase/opt/freq_opt_cation2.log
 Initial command:
 /mnt/gpfs3_amd/share/apps/amd/gaussian/g16-A.03/g16/l1.exe "/scratch/rdu230/d3tales/high_throughput/runfiles/05XICU/gaussian_hf/gas_phase/opt/Gau-3217505.inp" -scrdir="/scratch/rdu230/d3tales/high_throughput/runfiles/05XICU/gaussian_hf/gas_phase/opt/"
 Entering Link 1 = /mnt/gpfs3_amd/share/apps/amd/gaussian/g16-A.03/g16/l1.exe PID=   3217506.
  
 Copyright (c) 1988,1990,1992,1993,1995,1998,2003,2009,2016,
            Gaussian, Inc.  All Rights Reserved.
  
 This is part of the Gaussian(R) 16 program.  It is based on
 the Gaussian(R) 09 system (copyright 2009, Gaussian, Inc.),
 the Gaussian(R) 03 system (copyright 2003, Gaussian, Inc.),
 the Gaussian(R) 98 system (copyright 1998, Gaussian, Inc.),
 the Gaussian(R) 94 system (copyright 1995, Gaussian, Inc.),
 the Gaussian 92(TM) system (copyright 1992, Gaussian, Inc.),
 the Gaussian 90(TM) system (copyright 1990, Gaussian, Inc.),
 the Gaussian 88(TM) system (copyright 1988, Gaussian, Inc.),
 the Gaussian 86(TM) system (copyright 1986, Carnegie Mellon
 University), and the Gaussian 82(TM) system (copyright 1983,
 Carnegie Mellon University). Gaussian is a federally registered
 trademark of Gaussian, Inc.
  
 This software contains proprietary and confidential information,
 including trade secrets, belonging to Gaussian, Inc.
  
 This software is provided under written license and may be
 used, copied, transmitted, or stored only in accord with that
 written license.
  
 The following legend is applicable only to US Government
 contracts under FAR:
  
                    RESTRICTED RIGHTS LEGEND
  
 Use, reproduction and disclosure by the US Government is
 subject to restrictions as set forth in subparagraphs (a)
 and (c) of the Commercial Computer Software - Restricted
 Rights clause in FAR 52.227-19.
  
 Gaussian, Inc.
 340 Quinnipiac St., Bldg. 40, Wallingford CT 06492
  
  
 ---------------------------------------------------------------
 Warning -- This program may not be used in any manner that
 competes with the business of Gaussian, Inc. or will provide
 assistance to any competitor of Gaussian, Inc.  The licensee
 of this program is prohibited from giving any competitor of
 Gaussian, Inc. access to this program.  By using this program,
 the user acknowledges that Gaussian, Inc. is engaged in the
 business of creating and licensing software in the field of
 computational chemistry and represents and warrants to the
 licensee that it is not a competitor of Gaussian, Inc. and that
 it will not use this program in any manner prohibited above.
 ---------------------------------------------------------------
  

 Cite this work as:
 Gaussian 16, Revision A.03,
 M. J. Frisch, G. W. Trucks, H. B. Schlegel, G. E. Scuseria, 
 M. A. Robb, J. R. Cheeseman, G. Scalmani, V. Barone, 
 G. A. Petersson, H. Nakatsuji, X. Li, M. Caricato, A. V. Marenich, 
 J. Bloino, B. G. Janesko, R. Gomperts, B. Mennucci, H. P. Hratchian, 
 J. V. Ortiz, A. F. Izmaylov, J. L. Sonnenberg, D. Williams-Young, 
 F. Ding, F. Lipparini, F. Egidi, J. Goings, B. Peng, A. Petrone, 
 T. Henderson, D. Ranasinghe, V. G. Zakrzewski, J. Gao, N. Rega, 
 G. Zheng, W. Liang, M. Hada, M. Ehara, K. Toyota, R. Fukuda, 
 J. Hasegawa, M. Ishida, T. Nakajima, Y. Honda, O. Kitao, H. Nakai, 
 T. Vreven, K. Throssell, J. A. Montgomery, Jr., J. E. Peralta, 
 F. Ogliaro, M. J. Bearpark, J. J. Heyd, E. N. Brothers, K. N. Kudin, 
 V. N. Staroverov, T. A. Keith, R. Kobayashi, J. Normand, 
 K. Raghavachari, A. P. Rendell, J. C. Burant, S. S. Iyengar, 
 J. Tomasi, M. Cossi, J. M. Millam, M. Klene, C. Adamo, R. Cammi, 
 J. W. Ochterski, R. L. Martin, K. Morokuma, O. Farkas, 
 J. B. Foresman, and D. J. Fox, Gaussian, Inc., Wallingford CT, 2016.
 
 ******************************************
 Gaussian 16:  AM64L-G16RevA.03 25-Dec-2016
                15-Aug-2022 
 ******************************************
 %chk=/scratch/rdu230/d3tales/high_throughput/runfiles//05XICU/gaussian_hf/gas_ph
 ase/opt/freq_opt_cation2.chk
 %mem=48GB
 %nprocshared=16
 Will use up to   16 processors via shared memory.
 %oldchk=/scratch/rdu230/d3tales/high_throughput/runfiles//05XICU/gaussian_hf/gas
 _phase/opt/opt_cation2.chk
 Copying data from "/scratch/rdu230/d3tales/high_throughput/runfiles//05XICU/gaussian_hf/gas_phase/opt/opt_cation2.chk" to current chk file "/scratch/rdu230/d3tales/high_throughput/runfiles//05XICU/gaussian_hf/gas_phase/opt/freq_opt_cation2.chk"
 IOpt=  2 FromEx=T IUOpen= 4 IOptOp= 5 NList=   0 IFRang= 0 IUIn= 4 IUOut= 2.
 ----------------------------------------------------------------------
 #P LC-wHPBE/Def2SVP Geom=AllCheck Guess=TCheck SCRF=Check freq iop(3/1
 07=0499400000, 3/108=0499400000)
 ----------------------------------------------------------------------
 1/10=4,29=7,30=1,38=1,40=1/1,3;
 2/12=2,40=1/2;
 3/5=43,7=101,11=2,14=-4,25=1,30=1,70=2,71=2,74=-71,107=499400000,108=499400000,116=-2,140=1/1,2,3;
 4/5=101/1;
 5/5=2,38=6,98=1/2;
 8/6=4,10=90,11=11/1;
 11/6=1,8=1,9=11,15=111,16=1/1,2,10;
 10/6=1/2;
 6/7=2,8=2,9=2,10=2,28=1/1;
 7/8=1,10=1,25=1/1,2,3,16;
 1/10=4,30=1/3;
 99//99;
 Leave Link    1 at Mon Aug 15 15:08:40 2022, MaxMem=  6442450944 cpu:               6.0 elap:               0.4
 (Enter /mnt/gpfs3_amd/share/apps/amd/gaussian/g16-A.03/g16/l101.exe)
 Structure from the checkpoint file:  "/scratch/rdu230/d3tales/high_throughput/runfiles//05XICU/gaussian_hf/gas_phase/opt/freq_opt_cation2.chk"
 -----
 H2 O1
 -----
 Charge =  2 Multiplicity = 1
 Redundant internal coordinates found in file.  (old form).
 O,0,-0.0011403589,0.3596632186,0.
 H,0,1.0697359659,-0.1775930883,0.
 H,0,-1.068596607,-0.1820701302,0.
 Recover connectivity data from disk.
 ITRead=  0  0  0
 MicOpt= -1 -1 -1
 NAtoms=      3 NQM=        3 NQMF=       0 NMMI=      0 NMMIF=      0
                NMic=       0 NMicF=      0.
                    Isotopes and Nuclear Properties:
 (Nuclear quadrupole moments (NQMom) in fm**2, nuclear magnetic moments (NMagM)
  in nuclear magnetons)

  Atom         1           2           3
 IAtWgt=          16           1           1
 AtmWgt=  15.9949146   1.0078250   1.0078250
 NucSpn=           0           1           1
 AtZEff=   5.6000000   1.0000000   1.0000000
 NQMom=    0.0000000   0.0000000   0.0000000
 NMagM=    0.0000000   2.7928460   2.7928460
 AtZNuc=   8.0000000   1.0000000   1.0000000
 Leave Link  101 at Mon Aug 15 15:08:40 2022, MaxMem=  6442450944 cpu:               2.7 elap:               0.2
 (Enter /mnt/gpfs3_amd/share/apps/amd/gaussian/g16-A.03/g16/l103.exe)

 GradGradGradGradGradGradGradGradGradGradGradGradGradGradGradGradGradGrad
 Berny optimization.
 Initialization pass.
                           ----------------------------
                           !    Initial Parameters    !
                           ! (Angstroms and Degrees)  !
 --------------------------                            --------------------------
 ! Name  Definition              Value          Derivative Info.                !
 --------------------------------------------------------------------------------
 ! R1    R(1,2)                  1.1981         calculate D2E/DX2 analytically  !
 ! R2    R(1,3)                  1.1971         calculate D2E/DX2 analytically  !
 ! A1    A(2,1,3)              126.4494         calculate D2E/DX2 analytically  !
 --------------------------------------------------------------------------------
 Trust Radius=3.00D-01 FncErr=1.00D-07 GrdErr=1.00D-07 EigMax=2.50D+02 EigMin=1.00D-04
 Number of steps in this run=      2 maximum allowed number of steps=      2.
 GradGradGradGradGradGradGradGradGradGradGradGradGradGradGradGradGradGrad

 Leave Link  103 at Mon Aug 15 15:08:40 2022, MaxMem=  6442450944 cpu:               0.1 elap:               0.0
 (Enter /mnt/gpfs3_amd/share/apps/amd/gaussian/g16-A.03/g16/l202.exe)
                          Input orientation:                          
 ---------------------------------------------------------------------
 Center     Atomic      Atomic             Coordinates (Angstroms)
 Number     Number       Type             X           Y           Z
 ---------------------------------------------------------------------
      1          8           0       -0.001140    0.359663    0.000000
      2          1           0        1.069736   -0.177593   -0.000000
      3          1           0       -1.068597   -0.182070   -0.000000
 ---------------------------------------------------------------------
                    Distance matrix (angstroms):
                    1          2          3
     1  O    0.000000
     2  H    1.198090   0.000000
     3  H    1.197054   2.138337   0.000000
 Stoichiometry    H2O(2+)
 Framework group  CS[SG(H2O)]
 Deg. of freedom     3
 Full point group                 CS      NOp   2
 RotChk:  IX=0 Diff= 1.34D-16
 Largest Abelian subgroup         CS      NOp   2
 Largest concise Abelian subgroup C1      NOp   1
                         Standard orientation:                         
 ---------------------------------------------------------------------
 Center     Atomic      Atomic             Coordinates (Angstroms)
 Number     Number       Type             X           Y           Z
 ---------------------------------------------------------------------
      1          8           0        0.000000    0.107900    0.000000
      2          1           0        1.069168   -0.432748   -0.000000
      3          1           0       -1.069168   -0.430448    0.000000
 ---------------------------------------------------------------------
 Rotational constants (GHZ):         969.9942944         219.3357876         178.8859676
 Leave Link  202 at Mon Aug 15 15:08:40 2022, MaxMem=  6442450944 cpu:               0.1 elap:               0.0
 (Enter /mnt/gpfs3_amd/share/apps/amd/gaussian/g16-A.03/g16/l301.exe)
 Standard basis: def2SVP (5D, 7F)
 Ernie: Thresh=  0.10000D-02 Tol=  0.10000D-05 Strict=F.
 There are    19 symmetry adapted cartesian basis functions of A'  symmetry.
 There are     6 symmetry adapted cartesian basis functions of A"  symmetry.
 There are    18 symmetry adapted basis functions of A'  symmetry.
 There are     6 symmetry adapted basis functions of A"  symmetry.
    24 basis functions,    39 primitive gaussians,    25 cartesian basis functions
     4 alpha electrons        4 beta electrons
       nuclear repulsion energy         7.3174733244 Hartrees.
 IExCor=33909 DFT=T Ex+Corr=LC-wHPBE ExCW=0 ScaHFX=  1.000000
 ScaDFX=  1.000000  1.000000  1.000000  1.000000 ScalE2=  1.000000  1.000000
 IRadAn=      5 IRanWt=     -1 IRanGd=            0 ICorTp=0 IEmpDi=  4
 HFx  wShort=  0.000000 wLong=  0.499400 cFull=  0.000000 cShort=  0.000000 cLong=  1.000000
 DFx  wShort=  0.000000 wLong=  0.499400 cFull=  0.000000 cShort=  1.000000 cLong=  0.000000
 NAtoms=    3 NActive=    3 NUniq=    3 SFac= 1.00D+00 NAtFMM=   60 NAOKFM=F Big=F
 Integral buffers will be    131072 words long.
 Raffenetti 2 integral format.
 Two-electron integral symmetry is turned on.
 Leave Link  301 at Mon Aug 15 15:08:40 2022, MaxMem=  6442450944 cpu:               0.4 elap:               0.0
 (Enter /mnt/gpfs3_amd/share/apps/amd/gaussian/g16-A.03/g16/l302.exe)
 NPDir=0 NMtPBC=     1 NCelOv=     1 NCel=       1 NClECP=     1 NCelD=      1
         NCelK=      1 NCelE2=     1 NClLst=     1 CellRange=     0.0.
 One-electron integrals computed using PRISM.
 One-electron integral symmetry used in STVInt
   2 Symmetry operations used in ECPInt.
 ECPInt:  NShTT=      78 NPrTT=     272 LenC2=      79 LenP2D=     265.
 LDataN:  DoStor=T MaxTD1= 4 Len=   56
 NBasis=    24 RedAO= T EigKep=  6.65D-02  NBF=    18     6
 NBsUse=    24 1.00D-06 EigRej= -1.00D+00 NBFU=    18     6
 Precomputing XC quadrature grid using
 IXCGrd= 4 IRadAn=           5 IRanWt=          -1 IRanGd=           0 AccXCQ= 0.00D+00.
 Generated NRdTot=       0 NPtTot=           0 NUsed=           0 NTot=          32
 NSgBfM=    25    25    25    25    25 MxSgAt=     3 MxSgA2=     3.
 Leave Link  302 at Mon Aug 15 15:08:40 2022, MaxMem=  6442450944 cpu:               1.5 elap:               0.1
 (Enter /mnt/gpfs3_amd/share/apps/amd/gaussian/g16-A.03/g16/l303.exe)
 DipDrv:  MaxL=1.
 Leave Link  303 at Mon Aug 15 15:08:40 2022, MaxMem=  6442450944 cpu:               0.2 elap:               0.0
 (Enter /mnt/gpfs3_amd/share/apps/amd/gaussian/g16-A.03/g16/l401.exe)
 Initial guess from the checkpoint file:  "/scratch/rdu230/d3tales/high_throughput/runfiles//05XICU/gaussian_hf/gas_phase/opt/freq_opt_cation2.chk"
 B after Tr=     0.000000    0.000000    0.000000
         Rot=    1.000000   -0.000000   -0.000000    0.000000 Ang=   0.00 deg.
 Guess basis will be translated and rotated to current coordinates.
 JPrj=2 DoOrth=T DoCkMO=T.
 Initial guess orbital symmetries:
       Occupied  (A') (A') (A') (A')
       Virtual   (A") (A') (A') (A') (A') (A") (A') (A') (A') (A")
                 (A') (A') (A") (A') (A') (A") (A') (A") (A') (A')
 The electronic state of the initial guess is 1-A'.
 Leave Link  401 at Mon Aug 15 15:08:40 2022, MaxMem=  6442450944 cpu:               0.6 elap:               0.0
 (Enter /mnt/gpfs3_amd/share/apps/amd/gaussian/g16-A.03/g16/l502.exe)
 Keep R1 ints in memory in symmetry-blocked form, NReq=13884302.
 FoFCou: FMM=F IPFlag=           0 FMFlag=           0 FMFlg1=           0
         NFxFlg=           0 DoJE=F BraDBF=F KetDBF=F FulRan=T
         wScrn=  0.000000 ICntrl=       600 IOpCl=  0 I1Cent=           0 NGrid=           0
         NMat0=    1 NMatS0=    300 NMatT0=    0 NMatD0=    1 NMtDS0=    0 NMtDT0=    0
 Petite list used in FoFCou.
 Closed shell SCF:
 Using DIIS extrapolation, IDIIS=  1040.
 NGot=  6442450944 LenX=  6442423464 LenY=  6442422398
 Requested convergence on RMS density matrix=1.00D-08 within 128 cycles.
 Requested convergence on MAX density matrix=1.00D-06.
 Requested convergence on             energy=1.00D-06.
 No special actions if energy rises.

 Cycle   1  Pass 1  IDiag  1:
 E= -74.8339363921238    
 DIIS: error= 3.54D-09 at cycle   1 NSaved=   1.
 NSaved= 1 IEnMin= 1 EnMin= -74.8339363921238     IErMin= 1 ErrMin= 3.54D-09
 ErrMax= 3.54D-09  0.00D+00 EMaxC= 1.00D-01 BMatC= 3.20D-16 BMatP= 3.20D-16
 IDIUse=1 WtCom= 1.00D+00 WtEn= 0.00D+00
 Coeff-Com:  0.100D+01
 Coeff:      0.100D+01
 Gap=     0.412 Goal=   None    Shift=    0.000
 RMSDP=7.81D-10 MaxDP=7.82D-09              OVMax= 7.08D-09

 SCF Done:  E(RLC-wHPBE) =  -74.8339363921     A.U. after    1 cycles
            NFock=  1  Conv=0.78D-09     -V/T= 2.0044
 KE= 7.450496691712D+01 PE=-1.844141854502D+02 EE= 2.775780881658D+01
 Leave Link  502 at Mon Aug 15 15:08:41 2022, MaxMem=  6442450944 cpu:               3.8 elap:               0.3
 (Enter /mnt/gpfs3_amd/share/apps/amd/gaussian/g16-A.03/g16/l801.exe)
 DoSCS=F DFT=T ScalE2(SS,OS)=  1.000000  1.000000
 Range of M.O.s used for correlation:     1    24
 NBasis=    24 NAE=     4 NBE=     4 NFC=     0 NFV=     0
 NROrb=     24 NOA=     4 NOB=     4 NVA=    20 NVB=    20
 Leave Link  801 at Mon Aug 15 15:08:41 2022, MaxMem=  6442450944 cpu:               0.1 elap:               0.0
 (Enter /mnt/gpfs3_amd/share/apps/amd/gaussian/g16-A.03/g16/l1101.exe)
 Using compressed storage, NAtomX=     3.
 Will process      4 centers per pass.
   2 Symmetry operations used in ECPInt.
 ECPInt:  NShTT=      78 NPrTT=     272 LenC2=      79 LenP2D=     265.
 LDataN:  DoStor=T MaxTD1= 5 Len=  102
 Leave Link 1101 at Mon Aug 15 15:08:41 2022, MaxMem=  6442450944 cpu:               1.5 elap:               0.1
 (Enter /mnt/gpfs3_amd/share/apps/amd/gaussian/g16-A.03/g16/l1102.exe)
 Symmetrizing basis deriv contribution to polar:
 IMax=3 JMax=2 DiffMx= 0.00D+00
 Leave Link 1102 at Mon Aug 15 15:08:41 2022, MaxMem=  6442450944 cpu:               0.1 elap:               0.0
 (Enter /mnt/gpfs3_amd/share/apps/amd/gaussian/g16-A.03/g16/l1110.exe)
 Forming Gx(P) for the SCF density, NAtomX=     3.
 Integral derivatives from FoFJK, PRISM(SPDF).
 Do as many integral derivatives as possible in FoFJK.
 G2DrvN: MDV=    6442450604.
 G2DrvN: will do     4 centers at a time, making    1 passes.
 Calling FoFCou, ICntrl=  3107 FMM=F I1Cent=   0 AccDes= 0.00D+00.
 FoFJK:  IHMeth= 1 ICntrl=    3107 DoSepK=T KAlg= 0 I1Cent=           0 FoldK=F
 IRaf=         1 NMat=       1 IRICut=       1 DoRegI=T DoRafI=F ISym2E= 1 IDoP0=0 IntGTp=1.
 FoFCou: FMM=F IPFlag=           0 FMFlag=      100000 FMFlg1=           0
         NFxFlg=           0 DoJE=F BraDBF=F KetDBF=F FulRan=T
         wScrn=  0.000000 ICntrl=      3507 IOpCl=  0 I1Cent=           0 NGrid=           0
         NMat0=    1 NMatS0=      1 NMatT0=    0 NMatD0=    1 NMtDS0=    0 NMtDT0=    0
 Petite list used in FoFCou.
 End of G2Drv F.D. properties file   721 does not exist.
 End of G2Drv F.D. properties file   722 does not exist.
 End of G2Drv F.D. properties file   788 does not exist.
 Leave Link 1110 at Mon Aug 15 15:08:41 2022, MaxMem=  6442450944 cpu:               5.5 elap:               0.4
 (Enter /mnt/gpfs3_amd/share/apps/amd/gaussian/g16-A.03/g16/l1002.exe)
 Minotr:  Closed shell wavefunction.
          IDoAtm=111
          Direct CPHF calculation.
          Differentiating once with respect to electric field.
                with respect to dipole field.
          Differentiating once with respect to nuclear coordinates.
          Using symmetry in CPHF.
          Requested convergence is 1.0D-08 RMS, and 1.0D-07 maximum.
          Secondary convergence is 1.0D-12 RMS, and 1.0D-12 maximum.
          NewPWx=T KeepS1=F KeepF1=F KeepIn=T MapXYZ=F SortEE=F KeepMc=T.
          881 words used for storage of precomputed grid.
 Keep R1 ints in memory in symmetry-blocked form, NReq=13830986.
 FoFCou: FMM=F IPFlag=           0 FMFlag=           0 FMFlg1=           0
         NFxFlg=           0 DoJE=F BraDBF=F KetDBF=F FulRan=T
         wScrn=  0.000000 ICntrl=       600 IOpCl=  0 I1Cent=           0 NGrid=           0
         NMat0=    1 NMatS0=    300 NMatT0=    0 NMatD0=    1 NMtDS0=    0 NMtDT0=    0
 Petite list used in FoFCou.
          MDV=    6442450944 using IRadAn=       1.
          Solving linear equations simultaneously, MaxMat=       0.
          There are    12 degrees of freedom in the 1st order CPHF.  IDoFFX=6 NUNeed=     3.
      9 vectors produced by pass  0 Test12= 6.67D-16 8.33D-09 XBig12= 1.13D+00 8.55D-01.
 AX will form     9 AO Fock derivatives at one time.
      9 vectors produced by pass  1 Test12= 6.67D-16 8.33D-09 XBig12= 1.85D-02 7.92D-02.
      9 vectors produced by pass  2 Test12= 6.67D-16 8.33D-09 XBig12= 1.47D-04 6.49D-03.
      9 vectors produced by pass  3 Test12= 6.67D-16 8.33D-09 XBig12= 3.51D-07 3.09D-04.
      9 vectors produced by pass  4 Test12= 6.67D-16 8.33D-09 XBig12= 4.18D-10 8.51D-06.
      6 vectors produced by pass  5 Test12= 6.67D-16 8.33D-09 XBig12= 1.20D-12 5.22D-07.
      2 vectors produced by pass  6 Test12= 6.67D-16 8.33D-09 XBig12= 1.67D-15 1.71D-08.
 InvSVY:  IOpt=1 It=  1 EMax= 2.22D-16
 Solved reduced A of dimension    53 with     9 vectors.
 FullF1:  Do perturbations      1 to       3.
 Isotropic polarizability for W=    0.000000        3.60 Bohr**3.
 End of Minotr F.D. properties file   721 does not exist.
 End of Minotr F.D. properties file   722 does not exist.
 End of Minotr F.D. properties file   788 does not exist.
 Leave Link 1002 at Mon Aug 15 15:08:41 2022, MaxMem=  6442450944 cpu:               4.7 elap:               0.3
 (Enter /mnt/gpfs3_amd/share/apps/amd/gaussian/g16-A.03/g16/l601.exe)
 Copying SCF densities to generalized density rwf, IOpCl= 0 IROHF=0.

 **********************************************************************

            Population analysis using the SCF density.

 **********************************************************************

 Orbital symmetries:
       Occupied  (A') (A') (A') (A')
       Virtual   (A") (A') (A') (A') (A') (A") (A') (A') (A') (A")
                 (A') (A') (A") (A') (A') (A") (A') (A") (A') (A')
 The electronic state is 1-A'.
 Alpha  occ. eigenvalues --  -20.14585  -2.04593  -1.54389  -1.42308
 Alpha virt. eigenvalues --   -1.01116  -0.59686  -0.51757  -0.09970  -0.01669
 Alpha virt. eigenvalues --    0.19551   0.23319   0.39043   0.39520   0.67791
 Alpha virt. eigenvalues --    0.90676   0.91201   0.95738   1.22984   1.24793
 Alpha virt. eigenvalues --    1.87684   1.94992   2.00139   2.64509   2.66774
          Condensed to atoms (all electrons):
               1          2          3
     1  O    6.874035   0.207710   0.208146
     2  H    0.207710   0.148009  -0.001084
     3  H    0.208146  -0.001084   0.148411
 Mulliken charges:
               1
     1  O    0.710109
     2  H    0.645365
     3  H    0.644526
 Sum of Mulliken charges =   2.00000
 Mulliken charges with hydrogens summed into heavy atoms:
               1
     1  O    2.000000
 APT charges:
               1
     1  O    0.330996
     2  H    0.834817
     3  H    0.834187
 Sum of APT charges =   2.00000
 APT charges with hydrogens summed into heavy atoms:
               1
     1  O    2.000000
 Electronic spatial extent (au):  <R**2>=             11.9050
 Charge=              2.0000 electrons
 Dipole moment (field-independent basis, Debye):
    X=              0.0022    Y=             -2.5682    Z=             -0.0000  Tot=              2.5682
 Quadrupole moment (field-independent basis, Debye-Ang):
   XX=              3.7750   YY=             -3.3994   ZZ=             -3.1701
   XY=             -0.0101   XZ=             -0.0000   YZ=              0.0000
 Traceless Quadrupole moment (field-independent basis, Debye-Ang):
   XX=              4.7065   YY=             -2.4679   ZZ=             -2.2386
   XY=             -0.0101   XZ=             -0.0000   YZ=              0.0000
 Octapole moment (field-independent basis, Debye-Ang**2):
  XXX=              0.0030  YYY=             -1.5346  ZZZ=             -0.0000  XYY=              0.0087
  XXY=             -4.0852  XXZ=             -0.0000  XZZ=              0.0001  YZZ=             -0.1485
  YYZ=             -0.0000  XYZ=              0.0000
 Hexadecapole moment (field-independent basis, Debye-Ang**3):
 XXXX=              6.0463 YYYY=             -3.1964 ZZZZ=             -1.3721 XXXY=             -0.0115
 XXXZ=             -0.0000 YYYX=             -0.0050 YYYZ=              0.0000 ZZZX=              0.0000
 ZZZY=             -0.0000 XXYY=              0.4111 XXZZ=             -1.0034 YYZZ=             -0.7933
 XXYZ=              0.0000 YYXZ=             -0.0000 ZZXY=              0.0003
 N-N= 7.317473324380D+00 E-N=-1.844141854250D+02  KE= 7.450496691712D+01
 Symmetry A'   KE= 7.450496691712D+01
 Symmetry A"   KE= 2.424357823882D-63
  Exact polarizability:   5.689  -0.004   2.572  -0.000   0.000   2.537
 Approx polarizability:   4.796  -0.003   2.297  -0.000   0.000   2.489
 No NMR shielding tensors so no spin-rotation constants.
 Leave Link  601 at Mon Aug 15 15:08:42 2022, MaxMem=  6442450944 cpu:               1.4 elap:               0.1
 (Enter /mnt/gpfs3_amd/share/apps/amd/gaussian/g16-A.03/g16/l701.exe)
 ... and contract with generalized density number  0.
 Compute integral second derivatives.
   2 Symmetry operations used in ECPInt.
 ECPInt:  NShTT=      78 NPrTT=     272 LenC2=      79 LenP2D=     265.
 LDataN:  DoStor=T MaxTD1= 6 Len=  172
 Leave Link  701 at Mon Aug 15 15:08:42 2022, MaxMem=  6442450944 cpu:               1.9 elap:               0.1
 (Enter /mnt/gpfs3_amd/share/apps/amd/gaussian/g16-A.03/g16/l702.exe)
 L702 exits ... SP integral derivatives will be done elsewhere.
 Leave Link  702 at Mon Aug 15 15:08:42 2022, MaxMem=  6442450944 cpu:               0.2 elap:               0.0
 (Enter /mnt/gpfs3_amd/share/apps/amd/gaussian/g16-A.03/g16/l703.exe)
 Integral derivatives from FoFJK, PRISM(SPDF).
 Compute integral second derivatives, UseDBF=F ICtDFT=           0.
 Calling FoFJK, ICntrl=    100127 FMM=F ISym2X=1 I1Cent= 0 IOpClX= 0 NMat=1 NMatS=1 NMatT=0.
 FoFJK:  IHMeth= 1 ICntrl=  100127 DoSepK=T KAlg= 0 I1Cent=           0 FoldK=F
 IRaf=         1 NMat=       1 IRICut=       1 DoRegI=T DoRafI=F ISym2E= 1 IDoP0=0 IntGTp=1.
 FoFCou: FMM=F IPFlag=           0 FMFlag=      100000 FMFlg1=         800
         NFxFlg=           0 DoJE=F BraDBF=F KetDBF=F FulRan=T
         wScrn=  0.000000 ICntrl=    100527 IOpCl=  0 I1Cent=           0 NGrid=           0
         NMat0=    1 NMatS0=      1 NMatT0=    0 NMatD0=    1 NMtDS0=    0 NMtDT0=    0
 Petite list used in FoFCou.
 Leave Link  703 at Mon Aug 15 15:08:42 2022, MaxMem=  6442450944 cpu:               8.5 elap:               0.5
 (Enter /mnt/gpfs3_amd/share/apps/amd/gaussian/g16-A.03/g16/l716.exe)
 Dipole        = 8.78389187D-04-1.01039666D+00-4.82242184D-35
 Polarizability= 5.68857428D+00-4.20526556D-03 2.57154891D+00
                -3.64246020D-32 4.69399028D-34 2.53690298D+00
 Full mass-weighted force constant matrix:
 Low frequencies ---   -0.0026   -0.0018   -0.0008   10.9933   49.5793  113.7330
 Low frequencies ---  817.9938 1443.5058 1838.8525
 Diagonal vibrational polarizability:
       26.4911103      19.7563031       0.0000000
 Harmonic frequencies (cm**-1), IR intensities (KM/Mole), Raman scattering
 activities (A**4/AMU), depolarization ratios for plane and unpolarized
 incident light, reduced masses (AMU), force constants (mDyne/A),
 and normal coordinates:
                      1                      2                      3
                     A'                     A'                     A'
 Frequencies --    817.9931              1443.5058              1838.8525
 Red. masses --      1.0893                 1.1021                 1.0391
 Frc consts  --      0.4294                 1.3530                 2.0702
 IR Inten    --    407.8917              2051.1137               421.1877
  Atom  AN      X      Y      Z        X      Y      Z        X      Y      Z
     1   8    -0.00  -0.07  -0.00    -0.08   0.00   0.00    -0.00  -0.05   0.00
     2   1     0.39   0.58  -0.00     0.64  -0.32  -0.00    -0.60   0.36   0.00
     3   1    -0.39   0.59   0.00     0.62   0.31  -0.00     0.61   0.37  -0.00

 -------------------
 - Thermochemistry -
 -------------------
 Temperature   298.150 Kelvin.  Pressure   1.00000 Atm.
 Atom     1 has atomic number  8 and mass  15.99491
 Atom     2 has atomic number  1 and mass   1.00783
 Atom     3 has atomic number  1 and mass   1.00783
 Molecular mass:    18.01056 amu.
 Principal axes and moments of inertia in atomic units:
                           1         2         3
     Eigenvalues --     1.86057   8.22821  10.08878
           X            1.00000   0.00139   0.00000
           Y           -0.00139   1.00000   0.00000
           Z            0.00000  -0.00000   1.00000
 This molecule is an asymmetric top.
 Rotational symmetry number  1.
 Rotational temperatures (Kelvin)     46.55239    10.52646     8.58517
 Rotational constants (GHZ):         969.99429   219.33579   178.88597
 Zero-point vibrational energy      24525.5 (Joules/Mol)
                                    5.86175 (Kcal/Mol)
 Vibrational temperatures:   1176.91  2076.88  2645.70
          (Kelvin)
 
 Zero-point correction=                           0.009341 (Hartree/Particle)
 Thermal correction to Energy=                    0.012255
 Thermal correction to Enthalpy=                  0.013199
 Thermal correction to Gibbs Free Energy=        -0.009432
 Sum of electronic and zero-point Energies=            -74.824595
 Sum of electronic and thermal Energies=               -74.821682
 Sum of electronic and thermal Enthalpies=             -74.820738
 Sum of electronic and thermal Free Energies=          -74.843368
 
                     E (Thermal)             CV                S
                      KCal/Mol        Cal/Mol-Kelvin    Cal/Mol-Kelvin
 Total                    7.690              6.696             47.630
 Electronic               0.000              0.000              0.000
 Translational            0.889              2.981             34.608
 Rotational               0.889              2.981             12.811
 Vibrational              5.912              0.735              0.211
                       Q            Log10(Q)             Ln(Q)
 Total Bot       0.217887D+05          4.338232          9.989148
 Total V=0       0.431442D+09          8.634922         19.882643
 Vib (Bot)       0.515521D-04         -4.287753         -9.872917
 Vib (V=0)       0.102079D+01          0.008937          0.020578
 Electronic      0.100000D+01          0.000000          0.000000
 Translational   0.300431D+07          6.477745         14.915559
 Rotational      0.140683D+03          2.148241          4.946507
 
                                                                H2 O1
                                                             IR Spectrum
 
     1                           1                                                                                                   
     8                           4                                          8                                                        
     3                           4                                          1                                                        
     9                           4                                          8                                                        
 
     X                           X                                          X                                                        
     X                           X                                          X                                                        
     X                           X                                          X                                                        
     X                           X                                          X                                                        
                                 X                                                                                                   
                                 X                                                                                                   
                                 X                                                                                                   
                                 X                                                                                                   
                                 X                                                                                                   
                                 X                                                                                                   
                                 X                                                                                                   
                                 X                                                                                                   
                                 X                                                                                                   
                                 X                                                                                                   
                                 X                                                                                                   
                                 X                                                                                                   
                                 X                                                                                                   
                                 X                                                                                                   
                                 X                                                                                                   
                                 X                                                                                                   
 
 ***** Axes restored to original set *****
 -------------------------------------------------------------------
 Center     Atomic                   Forces (Hartrees/Bohr)
 Number     Number              X              Y              Z
 -------------------------------------------------------------------
      1        8           0.000126354   -0.000011364   -0.000000000
      2        1          -0.000057084    0.000037593    0.000000000
      3        1          -0.000069270   -0.000026230   -0.000000000
 -------------------------------------------------------------------
 Cartesian Forces:  Max     0.000126354 RMS     0.000054009
 Force constants in Cartesian coordinates: 
                1             2             3             4             5 
      1  0.115110D+00
      2  0.422413D-03  0.980790D-01
      3  0.000000D+00  0.000000D+00  0.871381D-03
      4 -0.573443D-01  0.438902D-01  0.000000D+00  0.781966D-01
      5  0.288437D-01 -0.487935D-01  0.000000D+00 -0.362724D-01  0.316107D-01
      6  0.000000D+00  0.000000D+00 -0.466812D-03  0.000000D+00  0.000000D+00
      7 -0.577656D-01 -0.443126D-01  0.000000D+00 -0.208523D-01  0.742866D-02
      8 -0.292661D-01 -0.492855D-01  0.000000D+00 -0.761782D-02  0.171827D-01
      9  0.000000D+00  0.000000D+00 -0.404568D-03  0.000000D+00  0.000000D+00
                6             7             8             9 
      6  0.297217D-03
      7  0.000000D+00  0.786179D-01
      8  0.000000D+00  0.368840D-01  0.321028D-01
      9  0.169595D-03  0.000000D+00  0.000000D+00  0.234973D-03
 FormGI is forming the generalized inverse of G from B-inverse, IUseBI=4.
 Force constants in internal coordinates: 
                1             2             3 
      1  0.979003D-01
      2  0.261646D-01  0.988558D-01
      3 -0.680772D-02 -0.678346D-02  0.608389D-01
 Leave Link  716 at Mon Aug 15 15:08:42 2022, MaxMem=  6442450944 cpu:               0.2 elap:               0.0
 (Enter /mnt/gpfs3_amd/share/apps/amd/gaussian/g16-A.03/g16/l103.exe)

 GradGradGradGradGradGradGradGradGradGradGradGradGradGradGradGradGradGrad
 Berny optimization.
 Red2BG is reusing G-inverse.
 Internal  Forces:  Max     0.000073633 RMS     0.000058750
 Search for a local minimum.
 Step number   1 out of a maximum of    2
 All quantities printed in internal units (Hartrees-Bohrs-Radians)
 Second derivative matrix not updated -- analytic derivatives used.
 The second derivative matrix:
                          R1        R2        A1
           R1           0.09790
           R2           0.02616   0.09886
           A1          -0.00681  -0.00678   0.06084
 ITU=  0
     Eigenvalues ---    0.05942   0.07221   0.12597
 Angle between quadratic step and forces=   2.18 degrees.
 Linear search not attempted -- first point.
 Iteration  1 RMS(Cart)=  0.00053739 RMS(Int)=  0.00000008
 Iteration  2 RMS(Cart)=  0.00000008 RMS(Int)=  0.00000000
 ITry= 1 IFail=0 DXMaxC= 6.75D-04 DCOld= 1.00D+10 DXMaxT= 3.00D-01 DXLimC= 3.00D+00 Rises=F
 ClnCor:  largest displacement from symmetrization is 4.44D-16 for atom     3.
 Variable       Old X    -DE/DX   Delta X   Delta X   Delta X     New X
                                 (Linear)    (Quad)   (Total)
    R1        2.26406  -0.00007   0.00000  -0.00094  -0.00094   2.26312
    R2        2.26210   0.00007   0.00000   0.00102   0.00102   2.26312
    A1        2.20696   0.00002   0.00000   0.00030   0.00030   2.20726
         Item               Value     Threshold  Converged?
 Maximum Force            0.000074     0.000450     YES
 RMS     Force            0.000059     0.000300     YES
 Maximum Displacement     0.000675     0.001800     YES
 RMS     Displacement     0.000537     0.001200     YES
 Predicted change in Energy=-7.215499D-08
 Optimization completed.
    -- Stationary point found.
                           ----------------------------
                           !   Optimized Parameters   !
                           ! (Angstroms and Degrees)  !
 --------------------------                            --------------------------
 ! Name  Definition              Value          Derivative Info.                !
 --------------------------------------------------------------------------------
 ! R1    R(1,2)                  1.1981         -DE/DX =   -0.0001              !
 ! R2    R(1,3)                  1.1971         -DE/DX =    0.0001              !
 ! A1    A(2,1,3)              126.4494         -DE/DX =    0.0                 !
 --------------------------------------------------------------------------------
 GradGradGradGradGradGradGradGradGradGradGradGradGradGradGradGradGradGrad

 Leave Link  103 at Mon Aug 15 15:08:42 2022, MaxMem=  6442450944 cpu:               0.1 elap:               0.0
 (Enter /mnt/gpfs3_amd/share/apps/amd/gaussian/g16-A.03/g16/l9999.exe)

 ----------------------------------------------------------------------

 Electric dipole moment (input orientation):
 (Debye = 10**-18 statcoulomb cm , SI units = C m)
                  (au)            (Debye)         (10**-30 SI)
   Tot        0.101040D+01      0.256817D+01      0.856650D+01
   x          0.408103D-02      0.103729D-01      0.346004D-01
   y         -0.101039D+01     -0.256815D+01     -0.856643D+01
   z          0.000000D+00      0.000000D+00      0.000000D+00

 Dipole polarizability, Alpha (input orientation).
 (esu units = cm**3 , SI units = C**2 m**2 J**-1)
 Alpha(0;0):
               (au)            (10**-24 esu)      (10**-40 SI)
   iso        0.359901D+01      0.533318D+00      0.593396D+00
   aniso      0.313450D+01      0.464485D+00      0.516809D+00
   xx         0.568857D+01      0.842959D+00      0.937918D+00
   yx         0.567476D-02      0.840913D-03      0.935642D-03
   yy         0.257155D+01      0.381065D+00      0.423992D+00
   zx         0.000000D+00      0.000000D+00      0.000000D+00
   zy         0.000000D+00      0.000000D+00      0.000000D+00
   zz         0.253690D+01      0.375930D+00      0.418279D+00

 ----------------------------------------------------------------------

 Dipole orientation:
     8          0.00059024          0.00000238         -0.67966814
     1          2.02011953          0.00815939          0.34376450
     1         -2.02071165         -0.00816179          0.33590364

 Electric dipole moment (dipole orientation):
 (Debye = 10**-18 statcoulomb cm , SI units = C m)
                  (au)            (Debye)         (10**-30 SI)
   Tot        0.101040D+01      0.256817D+01      0.856650D+01
   x          0.000000D+00      0.000000D+00      0.000000D+00
   y          0.000000D+00      0.000000D+00      0.000000D+00
   z          0.101040D+01      0.256817D+01      0.856650D+01

 Dipole polarizability, Alpha (dipole orientation).
 (esu units = cm**3 , SI units = C**2 m**2 J**-1)
 Alpha(0;0):
               (au)            (10**-24 esu)      (10**-40 SI)
   iso        0.359901D+01      0.533318D+00      0.593396D+00
   aniso      0.313450D+01      0.464485D+00      0.516809D+00
   xx         0.568851D+01      0.842951D+00      0.937909D+00
   yx         0.127296D-01      0.188633D-02      0.209882D-02
   yy         0.253695D+01      0.375938D+00      0.418287D+00
   zx         0.691499D-02      0.102470D-02      0.114013D-02
   zy         0.279301D-04      0.413881D-05      0.460505D-05
   zz         0.257156D+01      0.381066D+00      0.423993D+00

 ----------------------------------------------------------------------

 Test job not archived.
 1\1\GINC-ROME102\Freq\RLC-wHPBE\def2SVP\H2O1(2+)\RDU230\15-Aug-2022\0\
 \#P LC-wHPBE/Def2SVP Geom=AllCheck Guess=TCheck SCRF=Check freq iop(3/
 107=0499400000, 3/108=0499400000)\\H2 O1\\2,1\O,-0.0011403589,0.359663
 2186,0.\H,1.0697359659,-0.1775930883,0.\H,-1.068596607,-0.1820701302,0
 .\\Version=AM64L-G16RevA.03\State=1-A'\HF=-74.8339364\RMSD=7.808e-10\R
 MSF=5.401e-05\ZeroPoint=0.0093413\Thermal=0.0122546\Dipole=0.004081,-1
 .0103888,0.\DipoleDeriv=-0.1917742,-0.0015271,0.,-0.0017635,0.5743227,
 0.,0.,0.,0.6104405,1.097119,-0.1470884,0.,-0.201125,0.7123336,0.,0.,0.
 ,0.6949974,1.0946553,0.1486155,0.,0.2028885,0.7133438,0.,0.,0.,0.69456
 21\Polar=5.6885696,0.0056748,2.5715536,0.,0.,2.536903\Quadrupole=3.499
 1494,-1.8348349,-1.6643145,0.0094296,0.,0.\PG=CS [SG(H2O1)]\NImag=0\\0
 .11510994,0.00042241,0.09807898,0.,0.,0.00087138,-0.05734431,0.0438902
 1,0.,0.07819657,0.02884373,-0.04879345,0.,-0.03627239,0.03161074,0.,0.
 ,-0.00046681,0.,0.,0.00029722,-0.05776563,-0.04431262,0.,-0.02085226,0
 .00742866,0.,0.07861789,-0.02926614,-0.04928552,0.,-0.00761782,0.01718
 272,0.,0.03688396,0.03210281,0.,0.,-0.00040457,0.,0.,0.00016960,0.,0.,
 0.00023497\\-0.00012635,0.00001136,0.,0.00005708,-0.00003759,0.,0.0000
 6927,0.00002623,0.\\\@


          EVOLUTION
 IN THE BEGINNING GOD MADE MAN.
 HE WORKED THE DIRT WITH HIS HANDS.
 THEN GOD DECIDED TO GIVE MAN SCIENCE,
 MAN SHOULD BE USEFUL (LIKE AN APPLIANCE.)
 BUT SOON MAN'S KNOWLEDGE GREW TOO GREAT,
 TO THE HEADING SCIENCE HE COULDN'T RELATE
 SO GOD SAID "LETS HAVE DIFFERENT FIELDS,
 WE'LL DIVIDE THEM UP, SEE WHAT IT YIELDS."
 ENTER PHYSICS, CHEMISTRY, BIO
 THEY SPRANG UP AROUND THE NILE.
 BUT CHEMISTRY SURPASSED THE REST
 FAR AND AWAY IT WAS THE BEST.
 EXPERIMENT WAS GOD'S DECREE
 EXPERIMENT DID CHEMISTS WITH LOTS OF GLEE
 BUT SOON THEIR TESTS BEGAN TO BOG,
 THEY FOUND THEMSELVES DEEP IN A FOG.
 "GIVE US SOME HELP" THEY CRIED TO GOD.
 GOD LOOKED AROUND, THEN GAVE THE NOD.
 ENTER EINSTEIN, HEISENBERG, BOHR,
 REACTION PATHS WERE CLEAR ONCE MORE.
 WITH THEORISTS GOD SEND DIRECTION
 AND THEN HE STOPPED, HE'D MADE PERFECTION.
          -- THOMAS A. HOLME, 1981
 Job cpu time:       0 days  0 hours  0 minutes 39.8 seconds.
 Elapsed time:       0 days  0 hours  0 minutes  2.7 seconds.
 File lengths (MBytes):  RWF=    136 Int=      0 D2E=      0 Chk=     16 Scr=     16
 Normal termination of Gaussian 16 at Mon Aug 15 15:08:42 2022.
