 Entering Gaussian System, Link 0=/mnt/gpfs3_amd/share/apps/amd/gaussian/g16-A.03/g16/g16
 Input=/scratch/rdu230/d3tales/high_throughput/runfiles//05XICU/gaussian/solv_acetonitrile/energy/cation2/energy_cation2.com
 Output=/scratch/rdu230/d3tales/high_throughput/runfiles//05XICU/gaussian/solv_acetonitrile/energy/cation2/energy_cation2.log
 Initial command:
 /mnt/gpfs3_amd/share/apps/amd/gaussian/g16-A.03/g16/l1.exe "/scratch/rdu230/d3tales/high_throughput/runfiles/05XICU/gaussian/solv_acetonitrile/energy/cation2/Gau-4176823.inp" -scrdir="/scratch/rdu230/d3tales/high_throughput/runfiles/05XICU/gaussian/solv_acetonitrile/energy/cation2/"
 Entering Link 1 = /mnt/gpfs3_amd/share/apps/amd/gaussian/g16-A.03/g16/l1.exe PID=   4176824.
  
 Copyright (c) 1988,1990,1992,1993,1995,1998,2003,2009,2016,
            Gaussian, Inc.  All Rights Reserved.
  
 This is part of the Gaussian(R) 16 program.  It is based on
 the Gaussian(R) 09 system (copyright 2009, Gaussian, Inc.),
 the Gaussian(R) 03 system (copyright 2003, Gaussian, Inc.),
 the Gaussian(R) 98 system (copyright 1998, Gaussian, Inc.),
 the Gaussian(R) 94 system (copyright 1995, Gaussian, Inc.),
 the Gaussian 92(TM) system (copyright 1992, Gaussian, Inc.),
 the Gaussian 90(TM) system (copyright 1990, Gaussian, Inc.),
 the Gaussian 88(TM) system (copyright 1988, Gaussian, Inc.),
 the Gaussian 86(TM) system (copyright 1986, Carnegie Mellon
 University), and the Gaussian 82(TM) system (copyright 1983,
 Carnegie Mellon University). Gaussian is a federally registered
 trademark of Gaussian, Inc.
  
 This software contains proprietary and confidential information,
 including trade secrets, belonging to Gaussian, Inc.
  
 This software is provided under written license and may be
 used, copied, transmitted, or stored only in accord with that
 written license.
  
 The following legend is applicable only to US Government
 contracts under FAR:
  
                    RESTRICTED RIGHTS LEGEND
  
 Use, reproduction and disclosure by the US Government is
 subject to restrictions as set forth in subparagraphs (a)
 and (c) of the Commercial Computer Software - Restricted
 Rights clause in FAR 52.227-19.
  
 Gaussian, Inc.
 340 Quinnipiac St., Bldg. 40, Wallingford CT 06492
  
  
 ---------------------------------------------------------------
 Warning -- This program may not be used in any manner that
 competes with the business of Gaussian, Inc. or will provide
 assistance to any competitor of Gaussian, Inc.  The licensee
 of this program is prohibited from giving any competitor of
 Gaussian, Inc. access to this program.  By using this program,
 the user acknowledges that Gaussian, Inc. is engaged in the
 business of creating and licensing software in the field of
 computational chemistry and represents and warrants to the
 licensee that it is not a competitor of Gaussian, Inc. and that
 it will not use this program in any manner prohibited above.
 ---------------------------------------------------------------
  

 Cite this work as:
 Gaussian 16, Revision A.03,
 M. J. Frisch, G. W. Trucks, H. B. Schlegel, G. E. Scuseria, 
 M. A. Robb, J. R. Cheeseman, G. Scalmani, V. Barone, 
 G. A. Petersson, H. Nakatsuji, X. Li, M. Caricato, A. V. Marenich, 
 J. Bloino, B. G. Janesko, R. Gomperts, B. Mennucci, H. P. Hratchian, 
 J. V. Ortiz, A. F. Izmaylov, J. L. Sonnenberg, D. Williams-Young, 
 F. Ding, F. Lipparini, F. Egidi, J. Goings, B. Peng, A. Petrone, 
 T. Henderson, D. Ranasinghe, V. G. Zakrzewski, J. Gao, N. Rega, 
 G. Zheng, W. Liang, M. Hada, M. Ehara, K. Toyota, R. Fukuda, 
 J. Hasegawa, M. Ishida, T. Nakajima, Y. Honda, O. Kitao, H. Nakai, 
 T. Vreven, K. Throssell, J. A. Montgomery, Jr., J. E. Peralta, 
 F. Ogliaro, M. J. Bearpark, J. J. Heyd, E. N. Brothers, K. N. Kudin, 
 V. N. Staroverov, T. A. Keith, R. Kobayashi, J. Normand, 
 K. Raghavachari, A. P. Rendell, J. C. Burant, S. S. Iyengar, 
 J. Tomasi, M. Cossi, J. M. Millam, M. Klene, C. Adamo, R. Cammi, 
 J. W. Ochterski, R. L. Martin, K. Morokuma, O. Farkas, 
 J. B. Foresman, and D. J. Fox, Gaussian, Inc., Wallingford CT, 2016.
 
 ******************************************
 Gaussian 16:  AM64L-G16RevA.03 25-Dec-2016
                 1-Sep-2022 
 ******************************************
 %chk=/scratch/rdu230/d3tales/high_throughput/runfiles//05XICU/gaussian/solv_acet
 onitrile/energy/cation2/energy_cation2.chk
 %mem=48GB
 %nprocshared=16
 Will use up to   16 processors via shared memory.
 ----------------------------------------------------------------------
 #P LC-wHPBE/Def2SVP SCRF=(PCM,Solvent=acetonitrile) iop(3/107=04994000
 00, 3/108=0499400000)
 ----------------------------------------------------------------------
 1/38=1,172=1/1;
 2/12=2,17=6,18=5,40=1/2;
 3/5=43,7=101,11=2,25=1,30=1,70=2201,72=2,74=-71,107=499400000,108=499400000/1,2,3;
 4//1;
 5/5=2,38=5,53=2/2;
 6/7=2,8=2,9=2,10=2,28=1/1;
 99/5=1,9=1/99;
 Leave Link    1 at Thu Sep  1 12:22:04 2022, MaxMem=  6442450944 cpu:               4.2 elap:               0.3
 (Enter /mnt/gpfs3_amd/share/apps/amd/gaussian/g16-A.03/g16/l101.exe)
 -----
 H2 O1
 -----
 Symbolic Z-matrix:
 Charge =  2 Multiplicity = 1
 O                     0.        0.10788   0. 
 H                     1.06902  -0.4316    0. 
 H                    -1.06902  -0.43148   0. 
 
 ITRead=  0  0  0
 MicOpt= -1 -1 -1
 NAtoms=      3 NQM=        3 NQMF=       0 NMMI=      0 NMMIF=      0
                NMic=       0 NMicF=      0.
                    Isotopes and Nuclear Properties:
 (Nuclear quadrupole moments (NQMom) in fm**2, nuclear magnetic moments (NMagM)
  in nuclear magnetons)

  Atom         1           2           3
 IAtWgt=          16           1           1
 AtmWgt=  15.9949146   1.0078250   1.0078250
 NucSpn=           0           1           1
 AtZEff=  -0.0000000  -0.0000000  -0.0000000
 NQMom=    0.0000000   0.0000000   0.0000000
 NMagM=    0.0000000   2.7928460   2.7928460
 AtZNuc=   8.0000000   1.0000000   1.0000000
 Leave Link  101 at Thu Sep  1 12:22:04 2022, MaxMem=  6442450944 cpu:               0.6 elap:               0.0
 (Enter /mnt/gpfs3_amd/share/apps/amd/gaussian/g16-A.03/g16/l202.exe)
                          Input orientation:                          
 ---------------------------------------------------------------------
 Center     Atomic      Atomic             Coordinates (Angstroms)
 Number     Number       Type             X           Y           Z
 ---------------------------------------------------------------------
      1          8           0        0.000000    0.107884    0.000000
      2          1           0        1.069019   -0.431597    0.000000
      3          1           0       -1.069019   -0.431475    0.000000
 ---------------------------------------------------------------------
                    Distance matrix (angstroms):
                    1          2          3
     1  O    0.000000
     2  H    1.197431   0.000000
     3  H    1.197376   2.138038   0.000000
 Stoichiometry    H2O(2+)
 Framework group  CS[SG(H2O)]
 Deg. of freedom     3
 Full point group                 CS      NOp   2
 Largest Abelian subgroup         CS      NOp   2
 Largest concise Abelian subgroup C1      NOp   1
                         Standard orientation:                         
 ---------------------------------------------------------------------
 Center     Atomic      Atomic             Coordinates (Angstroms)
 Number     Number       Type             X           Y           Z
 ---------------------------------------------------------------------
      1          8           0        0.000000    0.107884    0.000000
      2          1           0        1.069019   -0.431597    0.000000
      3          1           0       -1.069019   -0.431475    0.000000
 ---------------------------------------------------------------------
 Rotational constants (GHZ):         970.2717274         219.3972657         178.9362967
 Leave Link  202 at Thu Sep  1 12:22:04 2022, MaxMem=  6442450944 cpu:               0.0 elap:               0.0
 (Enter /mnt/gpfs3_amd/share/apps/amd/gaussian/g16-A.03/g16/l301.exe)
 Standard basis: def2SVP (5D, 7F)
 Ernie: Thresh=  0.10000D-02 Tol=  0.10000D-05 Strict=F.
 There are    19 symmetry adapted cartesian basis functions of A'  symmetry.
 There are     6 symmetry adapted cartesian basis functions of A"  symmetry.
 There are    18 symmetry adapted basis functions of A'  symmetry.
 There are     6 symmetry adapted basis functions of A"  symmetry.
    24 basis functions,    39 primitive gaussians,    25 cartesian basis functions
     4 alpha electrons        4 beta electrons
       nuclear repulsion energy         7.3185009707 Hartrees.
 IExCor=33909 DFT=T Ex+Corr=LC-wHPBE ExCW=0 ScaHFX=  1.000000
 ScaDFX=  1.000000  1.000000  1.000000  1.000000 ScalE2=  1.000000  1.000000
 IRadAn=      5 IRanWt=     -1 IRanGd=            0 ICorTp=0 IEmpDi=  4
 HFx  wShort=  0.000000 wLong=  0.499400 cFull=  0.000000 cShort=  0.000000 cLong=  1.000000
 DFx  wShort=  0.000000 wLong=  0.499400 cFull=  0.000000 cShort=  1.000000 cLong=  0.000000
 NAtoms=    3 NActive=    3 NUniq=    3 SFac= 1.00D+00 NAtFMM=   60 NAOKFM=F Big=F
 Integral buffers will be    131072 words long.
 Raffenetti 2 integral format.
 Two-electron integral symmetry is turned on.
 ------------------------------------------------------------------------------
 Polarizable Continuum Model (PCM)
 =================================
 Model                : PCM.
 Atomic radii         : UFF (Universal Force Field).
 Polarization charges : Total charges.
 Charge compensation  : None.
 Solution method      : On-the-fly selection.
 Cavity type          : Scaled VdW (van der Waals Surface) (Alpha=1.100).
 Cavity algorithm     : GePol (No added spheres)
                        Default sphere list used, NSphG=    3.
                        Lebedev-Laikov grids with approx.  5.0 points / Ang**2.
                        Smoothing algorithm: York/Karplus (Gamma=1.0000).
                        Polarization charges: spherical gaussians, with
                                              point-specific exponents (IZeta= 3).
                        Self-potential: point-specific (ISelfS= 7).
                        Self-field    : sphere-specific E.n sum rule (ISelfD= 2).
 Solvent              : Acetonitrile, Eps=  35.688000 Eps(inf)=   1.806874
 ------------------------------------------------------------------------------
 Spheres list:
 ISph  on   Nord     Re0    Alpha      Xe            Ye            Ze
    1   O      1    1.7500  1.100      0.000000      0.107884      0.000000
    2   H      2    1.4430  1.100      1.069019     -0.431597      0.000000
    3   H      3    1.4430  1.100     -1.069019     -0.431475      0.000000
 ------------------------------------------------------------------------------
 GePol: Number of generator spheres                  =       3
 GePol: Total number of spheres                      =       3
 GePol: Number of exposed spheres                    =       3 (100.00%)
 GePol: Number of points                             =     406
 GePol: Average weight of points                     =       0.15
 GePol: Minimum weight of points                     =   0.20D-04
 GePol: Maximum weight of points                     =    0.20212
 GePol: Number of points with low weight             =       8
 GePol: Fraction of low-weight points (<1% of avg)   =       1.97%
 GePol: Cavity surface area                          =     60.183 Ang**2
 GePol: Cavity volume                                =     41.068 Ang**3
 Leave Link  301 at Thu Sep  1 12:22:04 2022, MaxMem=  6442450944 cpu:               0.5 elap:               0.0
 (Enter /mnt/gpfs3_amd/share/apps/amd/gaussian/g16-A.03/g16/l302.exe)
 NPDir=0 NMtPBC=     1 NCelOv=     1 NCel=       1 NClECP=     1 NCelD=      1
         NCelK=      1 NCelE2=     1 NClLst=     1 CellRange=     0.0.
 One-electron integrals computed using PRISM.
 One-electron integral symmetry used in STVInt
   2 Symmetry operations used in ECPInt.
 ECPInt:  NShTT=      78 NPrTT=     272 LenC2=      79 LenP2D=     265.
 LDataN:  DoStor=T MaxTD1= 4 Len=   56
 NBasis=    24 RedAO= T EigKep=  6.65D-02  NBF=    18     6
 NBsUse=    24 1.00D-06 EigRej= -1.00D+00 NBFU=    18     6
 Precomputing XC quadrature grid using
 IXCGrd= 4 IRadAn=           5 IRanWt=          -1 IRanGd=           0 AccXCQ= 0.00D+00.
 Generated NRdTot=       0 NPtTot=           0 NUsed=           0 NTot=          32
 NSgBfM=    25    25    25    25    25 MxSgAt=     3 MxSgA2=     3.
 Leave Link  302 at Thu Sep  1 12:22:05 2022, MaxMem=  6442450944 cpu:               1.2 elap:               0.1
 (Enter /mnt/gpfs3_amd/share/apps/amd/gaussian/g16-A.03/g16/l303.exe)
 DipDrv:  MaxL=1.
 Leave Link  303 at Thu Sep  1 12:22:05 2022, MaxMem=  6442450944 cpu:               0.1 elap:               0.0
 (Enter /mnt/gpfs3_amd/share/apps/amd/gaussian/g16-A.03/g16/l401.exe)
 ExpMin= 1.22D-01 ExpMax= 2.27D+03 ExpMxC= 3.41D+02 IAcc=3 IRadAn=         5 AccDes= 0.00D+00
 Harris functional with IExCor=33909 and IRadAn=       5 diagonalized for initial guess.
 HarFok:  IExCor=33909 AccDes= 0.00D+00 IRadAn=         5 IDoV= 1 UseB2=F ITyADJ=14
 ICtDFT=  3500011 ScaDFX=  1.000000  1.000000  1.000000  1.000000
 FoFCou: FMM=F IPFlag=           0 FMFlag=      100000 FMFlg1=           0
         NFxFlg=           0 DoJE=T BraDBF=F KetDBF=T FulRan=T
         wScrn=  0.000000 ICntrl=       500 IOpCl=  0 I1Cent=   200000004 NGrid=           0
         NMat0=    1 NMatS0=      1 NMatT0=    0 NMatD0=    1 NMtDS0=    0 NMtDT0=    0
 Petite list used in FoFCou.
 Harris En= -73.6593884388127    
 JPrj=0 DoOrth=F DoCkMO=F.
 Initial guess orbital symmetries:
       Occupied  (A') (A') (A') (A')
       Virtual   (A") (A') (A') (A') (A') (A') (A") (A') (A') (A")
                 (A') (A') (A") (A') (A') (A") (A') (A") (A') (A')
 The electronic state of the initial guess is 1-A'.
 Leave Link  401 at Thu Sep  1 12:22:05 2022, MaxMem=  6442450944 cpu:               2.0 elap:               0.1
 (Enter /mnt/gpfs3_amd/share/apps/amd/gaussian/g16-A.03/g16/l502.exe)
 Keep R1 ints in memory in symmetry-blocked form, NReq=13884296.
 FoFCou: FMM=F IPFlag=           0 FMFlag=           0 FMFlg1=           0
         NFxFlg=           0 DoJE=F BraDBF=F KetDBF=F FulRan=T
         wScrn=  0.000000 ICntrl=       600 IOpCl=  0 I1Cent=           0 NGrid=           0
         NMat0=    1 NMatS0=    300 NMatT0=    0 NMatD0=    1 NMtDS0=    0 NMtDT0=    0
 Petite list used in FoFCou.
 Closed shell SCF:
 Using DIIS extrapolation, IDIIS=  1040.
 NGot=  6442450944 LenX=  6442423470 LenY=  6442422404
 Requested convergence on RMS density matrix=1.00D-08 within 128 cycles.
 Requested convergence on MAX density matrix=1.00D-06.
 Requested convergence on             energy=1.00D-06.
 No special actions if energy rises.

 Cycle   1  Pass 1  IDiag  1:
 Inv3:  Mode=1 IEnd=      494508.
 Iteration    1 A*A^-1 deviation from unit magnitude is 1.67D-15 for    298.
 Iteration    1 A*A^-1 deviation from orthogonality  is 8.99D-16 for    213    151.
 Iteration    1 A^-1*A deviation from unit magnitude is 1.67D-15 for    299.
 Iteration    1 A^-1*A deviation from orthogonality  is 5.46D-16 for    302    196.
 E= -75.0318720843826    
 DIIS: error= 1.07D-01 at cycle   1 NSaved=   1.
 NSaved= 1 IEnMin= 1 EnMin= -75.0318720843826     IErMin= 1 ErrMin= 1.07D-01
 ErrMax= 1.07D-01  0.00D+00 EMaxC= 1.00D-01 BMatC= 2.95D-01 BMatP= 2.95D-01
 IDIUse=3 WtCom= 0.00D+00 WtEn= 1.00D+00
 Coeff-Com:  0.100D+01
 Coeff-En:   0.100D+01
 Coeff:      0.100D+01
 Gap=     0.356 Goal=   None    Shift=    0.000
 GapD=    0.356 DampG=1.000 DampE=0.250 DampFc=0.2500 IDamp=-1.
 Damping current iteration by 2.50D-01
 RMSDP=2.39D-02 MaxDP=2.61D-01              OVMax= 2.76D-01

 Cycle   2  Pass 1  IDiag  1:
 E= -75.1239037342060     Delta-E=       -0.092031649823 Rises=F Damp=T
 DIIS: error= 7.08D-02 at cycle   2 NSaved=   2.
 NSaved= 2 IEnMin= 2 EnMin= -75.1239037342060     IErMin= 2 ErrMin= 7.08D-02
 ErrMax= 7.08D-02  0.00D+00 EMaxC= 1.00D-01 BMatC= 1.14D-01 BMatP= 2.95D-01
 IDIUse=3 WtCom= 2.92D-01 WtEn= 7.08D-01
 Coeff-Com: -0.158D+01 0.258D+01
 Coeff-En:   0.000D+00 0.100D+01
 Coeff:     -0.461D+00 0.146D+01
 Gap=     0.399 Goal=   None    Shift=    0.000
 RMSDP=1.41D-02 MaxDP=1.48D-01 DE=-9.20D-02 OVMax= 4.54D-02

 Cycle   3  Pass 1  IDiag  1:
 E= -75.3011308668894     Delta-E=       -0.177227132683 Rises=F Damp=F
 DIIS: error= 3.64D-02 at cycle   3 NSaved=   3.
 NSaved= 3 IEnMin= 3 EnMin= -75.3011308668894     IErMin= 3 ErrMin= 3.64D-02
 ErrMax= 3.64D-02  0.00D+00 EMaxC= 1.00D-01 BMatC= 2.11D-02 BMatP= 1.14D-01
 IDIUse=3 WtCom= 6.36D-01 WtEn= 3.64D-01
 Coeff-Com:  0.624D+00-0.624D+00 0.100D+01
 Coeff-En:   0.000D+00 0.000D+00 0.100D+01
 Coeff:      0.396D+00-0.397D+00 0.100D+01
 Gap=     0.417 Goal=   None    Shift=    0.000
 RMSDP=5.25D-03 MaxDP=6.46D-02 DE=-1.77D-01 OVMax= 4.83D-02

 Cycle   4  Pass 1  IDiag  1:
 E= -75.3170079120977     Delta-E=       -0.015877045208 Rises=F Damp=F
 DIIS: error= 5.44D-03 at cycle   4 NSaved=   4.
 NSaved= 4 IEnMin= 4 EnMin= -75.3170079120977     IErMin= 4 ErrMin= 5.44D-03
 ErrMax= 5.44D-03  0.00D+00 EMaxC= 1.00D-01 BMatC= 7.40D-04 BMatP= 2.11D-02
 IDIUse=3 WtCom= 9.46D-01 WtEn= 5.44D-02
 Coeff-Com: -0.164D+00 0.191D+00 0.325D-02 0.970D+00
 Coeff-En:   0.000D+00 0.000D+00 0.000D+00 0.100D+01
 Coeff:     -0.155D+00 0.181D+00 0.307D-02 0.971D+00
 Gap=     0.416 Goal=   None    Shift=    0.000
 RMSDP=9.23D-04 MaxDP=1.02D-02 DE=-1.59D-02 OVMax= 1.10D-02

 Cycle   5  Pass 1  IDiag  1:
 E= -75.3177444216258     Delta-E=       -0.000736509528 Rises=F Damp=F
 DIIS: error= 5.10D-04 at cycle   5 NSaved=   5.
 NSaved= 5 IEnMin= 5 EnMin= -75.3177444216258     IErMin= 5 ErrMin= 5.10D-04
 ErrMax= 5.10D-04  0.00D+00 EMaxC= 1.00D-01 BMatC= 5.93D-06 BMatP= 7.40D-04
 IDIUse=3 WtCom= 9.95D-01 WtEn= 5.10D-03
 Coeff-Com: -0.171D-01 0.257D-01-0.409D-01-0.117D+00 0.115D+01
 Coeff-En:   0.000D+00 0.000D+00 0.000D+00 0.000D+00 0.100D+01
 Coeff:     -0.170D-01 0.256D-01-0.407D-01-0.116D+00 0.115D+01
 Gap=     0.415 Goal=   None    Shift=    0.000
 RMSDP=1.35D-04 MaxDP=1.32D-03 DE=-7.37D-04 OVMax= 1.98D-03

 Cycle   6  Pass 1  IDiag  1:
 E= -75.3177545834328     Delta-E=       -0.000010161807 Rises=F Damp=F
 DIIS: error= 9.37D-05 at cycle   6 NSaved=   6.
 NSaved= 6 IEnMin= 6 EnMin= -75.3177545834328     IErMin= 6 ErrMin= 9.37D-05
 ErrMax= 9.37D-05  0.00D+00 EMaxC= 1.00D-01 BMatC= 2.52D-07 BMatP= 5.93D-06
 IDIUse=1 WtCom= 1.00D+00 WtEn= 0.00D+00
 Coeff-Com: -0.580D-02 0.999D-02 0.139D-03-0.882D-02-0.331D+00 0.134D+01
 Coeff:     -0.580D-02 0.999D-02 0.139D-03-0.882D-02-0.331D+00 0.134D+01
 Gap=     0.416 Goal=   None    Shift=    0.000
 RMSDP=3.50D-05 MaxDP=2.97D-04 DE=-1.02D-05 OVMax= 6.04D-04

 Cycle   7  Pass 1  IDiag  1:
 E= -75.3177551303787     Delta-E=       -0.000000546946 Rises=F Damp=F
 DIIS: error= 2.80D-05 at cycle   7 NSaved=   7.
 NSaved= 7 IEnMin= 7 EnMin= -75.3177551303787     IErMin= 7 ErrMin= 2.80D-05
 ErrMax= 2.80D-05  0.00D+00 EMaxC= 1.00D-01 BMatC= 9.76D-09 BMatP= 2.52D-07
 IDIUse=1 WtCom= 1.00D+00 WtEn= 0.00D+00
 Coeff-Com: -0.311D-03 0.319D-03-0.755D-03 0.189D-02 0.203D-01-0.134D+00
 Coeff-Com:  0.111D+01
 Coeff:     -0.311D-03 0.319D-03-0.755D-03 0.189D-02 0.203D-01-0.134D+00
 Coeff:      0.111D+01
 Gap=     0.416 Goal=   None    Shift=    0.000
 RMSDP=3.52D-06 MaxDP=4.36D-05 DE=-5.47D-07 OVMax= 3.91D-05

 Cycle   8  Pass 1  IDiag  1:
 E= -75.3177551396422     Delta-E=       -0.000000009263 Rises=F Damp=F
 DIIS: error= 1.00D-06 at cycle   8 NSaved=   8.
 NSaved= 8 IEnMin= 8 EnMin= -75.3177551396422     IErMin= 8 ErrMin= 1.00D-06
 ErrMax= 1.00D-06  0.00D+00 EMaxC= 1.00D-01 BMatC= 2.83D-11 BMatP= 9.76D-09
 IDIUse=1 WtCom= 1.00D+00 WtEn= 0.00D+00
 Coeff-Com:  0.637D-05-0.283D-04 0.443D-04-0.107D-03 0.284D-02-0.520D-02
 Coeff-Com: -0.175D+00 0.118D+01
 Coeff:      0.637D-05-0.283D-04 0.443D-04-0.107D-03 0.284D-02-0.520D-02
 Coeff:     -0.175D+00 0.118D+01
 Gap=     0.416 Goal=   None    Shift=    0.000
 RMSDP=3.96D-07 MaxDP=3.05D-06 DE=-9.26D-09 OVMax= 5.19D-06

 Cycle   9  Pass 1  IDiag  1:
 E= -75.3177551396988     Delta-E=       -0.000000000057 Rises=F Damp=F
 DIIS: error= 1.12D-07 at cycle   9 NSaved=   9.
 NSaved= 9 IEnMin= 9 EnMin= -75.3177551396988     IErMin= 9 ErrMin= 1.12D-07
 ErrMax= 1.12D-07  0.00D+00 EMaxC= 1.00D-01 BMatC= 2.97D-13 BMatP= 2.83D-11
 IDIUse=1 WtCom= 1.00D+00 WtEn= 0.00D+00
 Coeff-Com: -0.333D-05 0.626D-05-0.981D-06 0.175D-04-0.451D-03 0.901D-03
 Coeff-Com:  0.172D-01-0.157D+00 0.114D+01
 Coeff:     -0.333D-05 0.626D-05-0.981D-06 0.175D-04-0.451D-03 0.901D-03
 Coeff:      0.172D-01-0.157D+00 0.114D+01
 Gap=     0.416 Goal=   None    Shift=    0.000
 RMSDP=2.97D-08 MaxDP=3.72D-07 DE=-5.66D-11 OVMax= 4.43D-07

 Cycle  10  Pass 1  IDiag  1:
 E= -75.3177551396993     Delta-E=       -0.000000000001 Rises=F Damp=F
 DIIS: error= 1.52D-08 at cycle  10 NSaved=  10.
 NSaved=10 IEnMin=10 EnMin= -75.3177551396993     IErMin=10 ErrMin= 1.52D-08
 ErrMax= 1.52D-08  0.00D+00 EMaxC= 1.00D-01 BMatC= 3.20D-15 BMatP= 2.97D-13
 IDIUse=1 WtCom= 1.00D+00 WtEn= 0.00D+00
 Coeff-Com:  0.574D-06-0.870D-06-0.414D-06-0.501D-05 0.676D-04-0.988D-04
 Coeff-Com: -0.265D-02 0.231D-01-0.197D+00 0.118D+01
 Coeff:      0.574D-06-0.870D-06-0.414D-06-0.501D-05 0.676D-04-0.988D-04
 Coeff:     -0.265D-02 0.231D-01-0.197D+00 0.118D+01
 Gap=     0.416 Goal=   None    Shift=    0.000
 RMSDP=2.10D-09 MaxDP=3.17D-08 DE=-5.40D-13 OVMax= 3.10D-08

 Error on total polarization charges = -0.00180
 SCF Done:  E(RLC-wHPBE) =  -75.3177551397     A.U. after   10 cycles
            NFock= 10  Conv=0.21D-08     -V/T= 2.0110
 KE= 7.449677103322D+01 PE=-1.844034613085D+02 EE= 2.727043416498D+01
 Leave Link  502 at Thu Sep  1 12:22:06 2022, MaxMem=  6442450944 cpu:              20.5 elap:               1.3
 (Enter /mnt/gpfs3_amd/share/apps/amd/gaussian/g16-A.03/g16/l601.exe)
 Copying SCF densities to generalized density rwf, IOpCl= 0 IROHF=0.

 **********************************************************************

            Population analysis using the SCF density.

 **********************************************************************

 Orbital symmetries:
       Occupied  (A') (A') (A') (A')
       Virtual   (A") (A') (A') (A') (A') (A") (A') (A') (A') (A")
                 (A') (A') (A") (A') (A') (A") (A') (A") (A') (A')
 The electronic state is 1-A'.
 Alpha  occ. eigenvalues --  -19.66347  -1.56154  -1.06088  -0.94240
 Alpha virt. eigenvalues --   -0.52684  -0.11935  -0.04298   0.37003   0.44260
 Alpha virt. eigenvalues --    0.68153   0.71064   0.86564   0.87521   1.16230
 Alpha virt. eigenvalues --    1.38924   1.39373   1.44046   1.70974   1.72544
 Alpha virt. eigenvalues --    2.36032   2.43306   2.48455   3.12630   3.14795
          Condensed to atoms (all electrons):
               1          2          3
     1  O    6.874530   0.207939   0.207963
     2  H    0.207939   0.147961  -0.001139
     3  H    0.207963  -0.001139   0.147983
 Mulliken charges:
               1
     1  O    0.709568
     2  H    0.645239
     3  H    0.645193
 Sum of Mulliken charges =   2.00000
 Mulliken charges with hydrogens summed into heavy atoms:
               1
     1  O    2.000000
 Electronic spatial extent (au):  <R**2>=             11.9175
 Charge=              2.0000 electrons
 Dipole moment (field-independent basis, Debye):
    X=              0.0001    Y=             -2.6176    Z=              0.0000  Tot=              2.6176
 Quadrupole moment (field-independent basis, Debye-Ang):
   XX=              3.7596   YY=             -3.4048   ZZ=             -3.1698
   XY=             -0.0005   XZ=              0.0000   YZ=              0.0000
 Traceless Quadrupole moment (field-independent basis, Debye-Ang):
   XX=              4.6980   YY=             -2.4665   ZZ=             -2.2315
   XY=             -0.0005   XZ=              0.0000   YZ=              0.0000
 Octapole moment (field-independent basis, Debye-Ang**2):
  XXX=              0.0002  YYY=             -1.5769  ZZZ=              0.0000  XYY=              0.0005
  XXY=             -4.0981  XXZ=              0.0000  XZZ=              0.0000  YZZ=             -0.1601
  YYZ=              0.0000  XYZ=              0.0000
 Hexadecapole moment (field-independent basis, Debye-Ang**3):
 XXXX=              6.0120 YYYY=             -3.2055 ZZZZ=             -1.3724 XXXY=             -0.0006
 XXXZ=              0.0000 YYYX=             -0.0003 YYYZ=              0.0000 ZZZX=              0.0000
 ZZZY=              0.0000 XXYY=              0.4092 XXZZ=             -1.0051 YYZZ=             -0.7948
 XXYZ=              0.0000 YYXZ=              0.0000 ZZXY=              0.0000
 N-N= 7.318500970658D+00 E-N=-1.844034609876D+02  KE= 7.449677103322D+01
 Symmetry A'   KE= 7.449677103322D+01
 Symmetry A"   KE= 0.000000000000D+00
 No NMR shielding tensors so no spin-rotation constants.
 Leave Link  601 at Thu Sep  1 12:22:06 2022, MaxMem=  6442450944 cpu:               1.1 elap:               0.1
 (Enter /mnt/gpfs3_amd/share/apps/amd/gaussian/g16-A.03/g16/l9999.exe)

 Test job not archived.
 1\1\GINC-MCC-LOGIN001\SP\RLC-wHPBE\def2SVP\H2O1(2+)\RDU230\01-Sep-2022
 \0\\#P LC-wHPBE/Def2SVP SCRF=(PCM,Solvent=acetonitrile) iop(3/107=0499
 400000, 3/108=0499400000)\\H2 O1\\2,1\O,0,0.,0.107884,0.\H,0,1.069019,
 -0.431597,0.\H,0,-1.069019,-0.431475,0.\\Version=AM64L-G16RevA.03\Stat
 e=1-A'\HF=-75.3177551\RMSD=2.101e-09\Dipole=0.0000486,-1.0298604,0.\Qu
 adrupole=3.492812,-1.8337531,-1.6590589,-0.0003973,0.,0.\PG=CS [SG(H2O
 1)]\\@


 IT IS DOUBTED WHETHER A MAN EVER BRINGS HIS FACULTIES TO BEAR WITH THEIR FULL FORCE
 ON A SUBJECT UNTIL HE WRITES UPON IT.

                          -- CICERO
 Job cpu time:       0 days  0 hours  0 minutes 30.5 seconds.
 Elapsed time:       0 days  0 hours  0 minutes  2.0 seconds.
 File lengths (MBytes):  RWF=    136 Int=      0 D2E=      0 Chk=     16 Scr=     16
 Normal termination of Gaussian 16 at Thu Sep  1 12:22:06 2022.
