 Entering Gaussian System, Link 0=/mnt/gpfs3_amd/share/apps/amd/gaussian/g16-A.03/g16/g16
 Input=/scratch/rdu230/d3tales/high_throughput/runfiles//05XICU/gaussian/gas_phase/energy/energy_groundState.com
 Output=/scratch/rdu230/d3tales/high_throughput/runfiles//05XICU/gaussian/gas_phase/energy/energy_groundState.log
 Initial command:
 /mnt/gpfs3_amd/share/apps/amd/gaussian/g16-A.03/g16/l1.exe "/scratch/rdu230/d3tales/high_throughput/runfiles/05XICU/gaussian/gas_phase/energy/Gau-1961160.inp" -scrdir="/scratch/rdu230/d3tales/high_throughput/runfiles/05XICU/gaussian/gas_phase/energy/"
 Entering Link 1 = /mnt/gpfs3_amd/share/apps/amd/gaussian/g16-A.03/g16/l1.exe PID=   1961161.
  
 Copyright (c) 1988,1990,1992,1993,1995,1998,2003,2009,2016,
            Gaussian, Inc.  All Rights Reserved.
  
 This is part of the Gaussian(R) 16 program.  It is based on
 the Gaussian(R) 09 system (copyright 2009, Gaussian, Inc.),
 the Gaussian(R) 03 system (copyright 2003, Gaussian, Inc.),
 the Gaussian(R) 98 system (copyright 1998, Gaussian, Inc.),
 the Gaussian(R) 94 system (copyright 1995, Gaussian, Inc.),
 the Gaussian 92(TM) system (copyright 1992, Gaussian, Inc.),
 the Gaussian 90(TM) system (copyright 1990, Gaussian, Inc.),
 the Gaussian 88(TM) system (copyright 1988, Gaussian, Inc.),
 the Gaussian 86(TM) system (copyright 1986, Carnegie Mellon
 University), and the Gaussian 82(TM) system (copyright 1983,
 Carnegie Mellon University). Gaussian is a federally registered
 trademark of Gaussian, Inc.
  
 This software contains proprietary and confidential information,
 including trade secrets, belonging to Gaussian, Inc.
  
 This software is provided under written license and may be
 used, copied, transmitted, or stored only in accord with that
 written license.
  
 The following legend is applicable only to US Government
 contracts under FAR:
  
                    RESTRICTED RIGHTS LEGEND
  
 Use, reproduction and disclosure by the US Government is
 subject to restrictions as set forth in subparagraphs (a)
 and (c) of the Commercial Computer Software - Restricted
 Rights clause in FAR 52.227-19.
  
 Gaussian, Inc.
 340 Quinnipiac St., Bldg. 40, Wallingford CT 06492
  
  
 ---------------------------------------------------------------
 Warning -- This program may not be used in any manner that
 competes with the business of Gaussian, Inc. or will provide
 assistance to any competitor of Gaussian, Inc.  The licensee
 of this program is prohibited from giving any competitor of
 Gaussian, Inc. access to this program.  By using this program,
 the user acknowledges that Gaussian, Inc. is engaged in the
 business of creating and licensing software in the field of
 computational chemistry and represents and warrants to the
 licensee that it is not a competitor of Gaussian, Inc. and that
 it will not use this program in any manner prohibited above.
 ---------------------------------------------------------------
  

 Cite this work as:
 Gaussian 16, Revision A.03,
 M. J. Frisch, G. W. Trucks, H. B. Schlegel, G. E. Scuseria, 
 M. A. Robb, J. R. Cheeseman, G. Scalmani, V. Barone, 
 G. A. Petersson, H. Nakatsuji, X. Li, M. Caricato, A. V. Marenich, 
 J. Bloino, B. G. Janesko, R. Gomperts, B. Mennucci, H. P. Hratchian, 
 J. V. Ortiz, A. F. Izmaylov, J. L. Sonnenberg, D. Williams-Young, 
 F. Ding, F. Lipparini, F. Egidi, J. Goings, B. Peng, A. Petrone, 
 T. Henderson, D. Ranasinghe, V. G. Zakrzewski, J. Gao, N. Rega, 
 G. Zheng, W. Liang, M. Hada, M. Ehara, K. Toyota, R. Fukuda, 
 J. Hasegawa, M. Ishida, T. Nakajima, Y. Honda, O. Kitao, H. Nakai, 
 T. Vreven, K. Throssell, J. A. Montgomery, Jr., J. E. Peralta, 
 F. Ogliaro, M. J. Bearpark, J. J. Heyd, E. N. Brothers, K. N. Kudin, 
 V. N. Staroverov, T. A. Keith, R. Kobayashi, J. Normand, 
 K. Raghavachari, A. P. Rendell, J. C. Burant, S. S. Iyengar, 
 J. Tomasi, M. Cossi, J. M. Millam, M. Klene, C. Adamo, R. Cammi, 
 J. W. Ochterski, R. L. Martin, K. Morokuma, O. Farkas, 
 J. B. Foresman, and D. J. Fox, Gaussian, Inc., Wallingford CT, 2016.
 
 ******************************************
 Gaussian 16:  AM64L-G16RevA.03 25-Dec-2016
                29-Aug-2022 
 ******************************************
 %chk=/scratch/rdu230/d3tales/high_throughput/runfiles//05XICU/gaussian/gas_phase
 /energy/energy_groundState.chk
 %mem=48GB
 %nprocshared=16
 Will use up to   16 processors via shared memory.
 -----------------------------------------------------------
 #P LC-wHPBE/Def2SVP iop(3/107=0499400000, 3/108=0499400000)
 -----------------------------------------------------------
 1/38=1,172=1/1;
 2/12=2,17=6,18=5,40=1/2;
 3/5=43,7=101,11=2,25=1,30=1,74=-71,107=499400000,108=499400000/1,2,3;
 4//1;
 5/5=2,38=5/2;
 6/7=2,8=2,9=2,10=2,28=1/1;
 99/5=1,9=1/99;
 Leave Link    1 at Mon Aug 29 15:04:51 2022, MaxMem=  6442450944 cpu:               4.4 elap:               0.3
 (Enter /mnt/gpfs3_amd/share/apps/amd/gaussian/g16-A.03/g16/l101.exe)
 -----
 H2 O1
 -----
 Symbolic Z-matrix:
 Charge =  0 Multiplicity = 1
 O                     0.        0.13819   0. 
 H                     0.75544  -0.54934   0. 
 H                    -0.75544  -0.55615   0. 
 
 ITRead=  0  0  0
 MicOpt= -1 -1 -1
 NAtoms=      3 NQM=        3 NQMF=       0 NMMI=      0 NMMIF=      0
                NMic=       0 NMicF=      0.
                    Isotopes and Nuclear Properties:
 (Nuclear quadrupole moments (NQMom) in fm**2, nuclear magnetic moments (NMagM)
  in nuclear magnetons)

  Atom         1           2           3
 IAtWgt=          16           1           1
 AtmWgt=  15.9949146   1.0078250   1.0078250
 NucSpn=           0           1           1
 AtZEff=  -0.0000000  -0.0000000  -0.0000000
 NQMom=    0.0000000   0.0000000   0.0000000
 NMagM=    0.0000000   2.7928460   2.7928460
 AtZNuc=   8.0000000   1.0000000   1.0000000
 Leave Link  101 at Mon Aug 29 15:04:51 2022, MaxMem=  6442450944 cpu:               0.6 elap:               0.0
 (Enter /mnt/gpfs3_amd/share/apps/amd/gaussian/g16-A.03/g16/l202.exe)
                          Input orientation:                          
 ---------------------------------------------------------------------
 Center     Atomic      Atomic             Coordinates (Angstroms)
 Number     Number       Type             X           Y           Z
 ---------------------------------------------------------------------
      1          8           0        0.000000    0.138187    0.000000
      2          1           0        0.755435   -0.549339    0.000000
      3          1           0       -0.755435   -0.556153    0.000000
 ---------------------------------------------------------------------
                    Distance matrix (angstroms):
                    1          2          3
     1  O    0.000000
     2  H    1.021457   0.000000
     3  H    1.026056   1.510885   0.000000
 Stoichiometry    H2O
 Framework group  CS[SG(H2O)]
 Deg. of freedom     3
 Full point group                 CS      NOp   2
 Largest Abelian subgroup         CS      NOp   2
 Largest concise Abelian subgroup C1      NOp   1
                         Standard orientation:                         
 ---------------------------------------------------------------------
 Center     Atomic      Atomic             Coordinates (Angstroms)
 Number     Number       Type             X           Y           Z
 ---------------------------------------------------------------------
      1          8           0        0.000000    0.138187    0.000000
      2          1           0        0.755435   -0.549339    0.000000
      3          1           0       -0.755435   -0.556153    0.000000
 ---------------------------------------------------------------------
 Rotational constants (GHZ):         591.4389775         439.3124455         252.0748434
 Leave Link  202 at Mon Aug 29 15:04:51 2022, MaxMem=  6442450944 cpu:               0.0 elap:               0.0
 (Enter /mnt/gpfs3_amd/share/apps/amd/gaussian/g16-A.03/g16/l301.exe)
 Standard basis: def2SVP (5D, 7F)
 Ernie: Thresh=  0.10000D-02 Tol=  0.10000D-05 Strict=F.
 There are    19 symmetry adapted cartesian basis functions of A'  symmetry.
 There are     6 symmetry adapted cartesian basis functions of A"  symmetry.
 There are    18 symmetry adapted basis functions of A'  symmetry.
 There are     6 symmetry adapted basis functions of A"  symmetry.
    24 basis functions,    39 primitive gaussians,    25 cartesian basis functions
     5 alpha electrons        5 beta electrons
       nuclear repulsion energy         8.6206477714 Hartrees.
 IExCor=33909 DFT=T Ex+Corr=LC-wHPBE ExCW=0 ScaHFX=  1.000000
 ScaDFX=  1.000000  1.000000  1.000000  1.000000 ScalE2=  1.000000  1.000000
 IRadAn=      5 IRanWt=     -1 IRanGd=            0 ICorTp=0 IEmpDi=  4
 HFx  wShort=  0.000000 wLong=  0.499400 cFull=  0.000000 cShort=  0.000000 cLong=  1.000000
 DFx  wShort=  0.000000 wLong=  0.499400 cFull=  0.000000 cShort=  1.000000 cLong=  0.000000
 NAtoms=    3 NActive=    3 NUniq=    3 SFac= 1.00D+00 NAtFMM=   60 NAOKFM=F Big=F
 Integral buffers will be    131072 words long.
 Raffenetti 2 integral format.
 Two-electron integral symmetry is turned on.
 Leave Link  301 at Mon Aug 29 15:04:51 2022, MaxMem=  6442450944 cpu:               0.3 elap:               0.0
 (Enter /mnt/gpfs3_amd/share/apps/amd/gaussian/g16-A.03/g16/l302.exe)
 NPDir=0 NMtPBC=     1 NCelOv=     1 NCel=       1 NClECP=     1 NCelD=      1
         NCelK=      1 NCelE2=     1 NClLst=     1 CellRange=     0.0.
 One-electron integrals computed using PRISM.
 One-electron integral symmetry used in STVInt
   2 Symmetry operations used in ECPInt.
 ECPInt:  NShTT=      78 NPrTT=     272 LenC2=      79 LenP2D=     271.
 LDataN:  DoStor=T MaxTD1= 4 Len=   56
 NBasis=    24 RedAO= T EigKep=  4.07D-02  NBF=    18     6
 NBsUse=    24 1.00D-06 EigRej= -1.00D+00 NBFU=    18     6
 Precomputing XC quadrature grid using
 IXCGrd= 4 IRadAn=           5 IRanWt=          -1 IRanGd=           0 AccXCQ= 0.00D+00.
 Generated NRdTot=       0 NPtTot=           0 NUsed=           0 NTot=          32
 NSgBfM=    25    25    25    25    25 MxSgAt=     3 MxSgA2=     3.
 Leave Link  302 at Mon Aug 29 15:04:51 2022, MaxMem=  6442450944 cpu:               1.2 elap:               0.1
 (Enter /mnt/gpfs3_amd/share/apps/amd/gaussian/g16-A.03/g16/l303.exe)
 DipDrv:  MaxL=1.
 Leave Link  303 at Mon Aug 29 15:04:51 2022, MaxMem=  6442450944 cpu:               0.1 elap:               0.0
 (Enter /mnt/gpfs3_amd/share/apps/amd/gaussian/g16-A.03/g16/l401.exe)
 ExpMin= 1.22D-01 ExpMax= 2.27D+03 ExpMxC= 3.41D+02 IAcc=3 IRadAn=         5 AccDes= 0.00D+00
 Harris functional with IExCor=33909 and IRadAn=       5 diagonalized for initial guess.
 HarFok:  IExCor=33909 AccDes= 0.00D+00 IRadAn=         5 IDoV= 1 UseB2=F ITyADJ=14
 ICtDFT=  3500011 ScaDFX=  1.000000  1.000000  1.000000  1.000000
 FoFCou: FMM=F IPFlag=           0 FMFlag=      100000 FMFlg1=           0
         NFxFlg=           0 DoJE=T BraDBF=F KetDBF=T FulRan=T
         wScrn=  0.000000 ICntrl=       500 IOpCl=  0 I1Cent=   200000004 NGrid=           0
         NMat0=    1 NMatS0=      1 NMatT0=    0 NMatD0=    1 NMtDS0=    0 NMtDT0=    0
 Petite list used in FoFCou.
 Harris En= -73.9176239948107    
 JPrj=0 DoOrth=F DoCkMO=F.
 Initial guess orbital symmetries:
       Occupied  (A') (A') (A') (A') (A")
       Virtual   (A') (A') (A') (A') (A') (A") (A') (A') (A') (A")
                 (A") (A') (A') (A') (A") (A") (A') (A') (A')
 The electronic state of the initial guess is 1-A'.
 Leave Link  401 at Mon Aug 29 15:04:51 2022, MaxMem=  6442450944 cpu:               2.0 elap:               0.1
 (Enter /mnt/gpfs3_amd/share/apps/amd/gaussian/g16-A.03/g16/l502.exe)
 Keep R1 ints in memory in symmetry-blocked form, NReq=13884302.
 FoFCou: FMM=F IPFlag=           0 FMFlag=           0 FMFlg1=           0
         NFxFlg=           0 DoJE=F BraDBF=F KetDBF=F FulRan=T
         wScrn=  0.000000 ICntrl=       600 IOpCl=  0 I1Cent=           0 NGrid=           0
         NMat0=    1 NMatS0=    300 NMatT0=    0 NMatD0=    1 NMtDS0=    0 NMtDT0=    0
 Petite list used in FoFCou.
 Closed shell SCF:
 Using DIIS extrapolation, IDIIS=  1040.
 NGot=  6442450944 LenX=  6442423464 LenY=  6442422398
 Requested convergence on RMS density matrix=1.00D-08 within 128 cycles.
 Requested convergence on MAX density matrix=1.00D-06.
 Requested convergence on             energy=1.00D-06.
 No special actions if energy rises.
 Integral accuracy reduced to 1.0D-05 until final iterations.

 Cycle   1  Pass 0  IDiag  1:
 E= -76.2972386853537    
 DIIS: error= 3.67D-02 at cycle   1 NSaved=   1.
 NSaved= 1 IEnMin= 1 EnMin= -76.2972386853537     IErMin= 1 ErrMin= 3.67D-02
 ErrMax= 3.67D-02  0.00D+00 EMaxC= 1.00D-01 BMatC= 2.59D-02 BMatP= 2.59D-02
 IDIUse=3 WtCom= 6.33D-01 WtEn= 3.67D-01
 Coeff-Com:  0.100D+01
 Coeff-En:   0.100D+01
 Coeff:      0.100D+01
 Gap=     0.512 Goal=   None    Shift=    0.000
 GapD=    0.512 DampG=2.000 DampE=0.500 DampFc=1.0000 IDamp=-1.
 RMSDP=7.11D-03 MaxDP=5.95D-02              OVMax= 8.22D-02

 Cycle   2  Pass 0  IDiag  1:
 E= -76.3053542077761     Delta-E=       -0.008115522422 Rises=F Damp=F
 DIIS: error= 2.19D-02 at cycle   2 NSaved=   2.
 NSaved= 2 IEnMin= 2 EnMin= -76.3053542077761     IErMin= 2 ErrMin= 2.19D-02
 ErrMax= 2.19D-02  0.00D+00 EMaxC= 1.00D-01 BMatC= 1.91D-02 BMatP= 2.59D-02
 IDIUse=3 WtCom= 7.81D-01 WtEn= 2.19D-01
 Coeff-Com:  0.460D+00 0.540D+00
 Coeff-En:   0.352D+00 0.648D+00
 Coeff:      0.436D+00 0.564D+00
 Gap=     0.583 Goal=   None    Shift=    0.000
 RMSDP=3.72D-03 MaxDP=3.23D-02 DE=-8.12D-03 OVMax= 3.36D-02

 Cycle   3  Pass 0  IDiag  1:
 E= -76.3185515631525     Delta-E=       -0.013197355376 Rises=F Damp=F
 DIIS: error= 2.67D-03 at cycle   3 NSaved=   3.
 NSaved= 3 IEnMin= 3 EnMin= -76.3185515631525     IErMin= 3 ErrMin= 2.67D-03
 ErrMax= 2.67D-03  0.00D+00 EMaxC= 1.00D-01 BMatC= 1.45D-04 BMatP= 1.91D-02
 IDIUse=3 WtCom= 9.73D-01 WtEn= 2.67D-02
 Coeff-Com:  0.955D-03 0.708D-01 0.928D+00
 Coeff-En:   0.000D+00 0.000D+00 0.100D+01
 Coeff:      0.929D-03 0.689D-01 0.930D+00
 Gap=     0.582 Goal=   None    Shift=    0.000
 RMSDP=2.89D-04 MaxDP=2.73D-03 DE=-1.32D-02 OVMax= 3.61D-03

 Cycle   4  Pass 0  IDiag  1:
 E= -76.3186729580106     Delta-E=       -0.000121394858 Rises=F Damp=F
 DIIS: error= 3.18D-04 at cycle   4 NSaved=   4.
 NSaved= 4 IEnMin= 4 EnMin= -76.3186729580106     IErMin= 4 ErrMin= 3.18D-04
 ErrMax= 3.18D-04  0.00D+00 EMaxC= 1.00D-01 BMatC= 2.54D-06 BMatP= 1.45D-04
 IDIUse=3 WtCom= 9.97D-01 WtEn= 3.18D-03
 Coeff-Com: -0.131D-01-0.180D-01 0.328D-01 0.998D+00
 Coeff-En:   0.000D+00 0.000D+00 0.000D+00 0.100D+01
 Coeff:     -0.130D-01-0.179D-01 0.327D-01 0.998D+00
 Gap=     0.583 Goal=   None    Shift=    0.000
 RMSDP=5.70D-05 MaxDP=6.55D-04 DE=-1.21D-04 OVMax= 5.40D-04

 Cycle   5  Pass 0  IDiag  1:
 E= -76.3186753154607     Delta-E=       -0.000002357450 Rises=F Damp=F
 DIIS: error= 2.89D-05 at cycle   5 NSaved=   5.
 NSaved= 5 IEnMin= 5 EnMin= -76.3186753154607     IErMin= 5 ErrMin= 2.89D-05
 ErrMax= 2.89D-05  0.00D+00 EMaxC= 1.00D-01 BMatC= 1.92D-08 BMatP= 2.54D-06
 IDIUse=1 WtCom= 1.00D+00 WtEn= 0.00D+00
 Coeff-Com:  0.102D-02 0.707D-03-0.118D-01-0.979D-01 0.111D+01
 Coeff:      0.102D-02 0.707D-03-0.118D-01-0.979D-01 0.111D+01
 Gap=     0.583 Goal=   None    Shift=    0.000
 RMSDP=6.31D-06 MaxDP=7.52D-05 DE=-2.36D-06 OVMax= 6.83D-05

 Initial convergence to 1.0D-05 achieved.  Increase integral accuracy.
 Cycle   6  Pass 1  IDiag  1:
 E= -76.3186779960344     Delta-E=       -0.000002680574 Rises=F Damp=F
 DIIS: error= 3.44D-06 at cycle   1 NSaved=   1.
 NSaved= 1 IEnMin= 1 EnMin= -76.3186779960344     IErMin= 1 ErrMin= 3.44D-06
 ErrMax= 3.44D-06  0.00D+00 EMaxC= 1.00D-01 BMatC= 4.09D-10 BMatP= 4.09D-10
 IDIUse=1 WtCom= 1.00D+00 WtEn= 0.00D+00
 Coeff-Com:  0.100D+01
 Coeff:      0.100D+01
 Gap=     0.583 Goal=   None    Shift=    0.000
 RMSDP=6.31D-06 MaxDP=7.52D-05 DE=-2.68D-06 OVMax= 1.03D-05

 Cycle   7  Pass 1  IDiag  1:
 E= -76.3186779968121     Delta-E=       -0.000000000778 Rises=F Damp=F
 DIIS: error= 1.89D-06 at cycle   2 NSaved=   2.
 NSaved= 2 IEnMin= 2 EnMin= -76.3186779968121     IErMin= 2 ErrMin= 1.89D-06
 ErrMax= 1.89D-06  0.00D+00 EMaxC= 1.00D-01 BMatC= 5.18D-11 BMatP= 4.09D-10
 IDIUse=1 WtCom= 1.00D+00 WtEn= 0.00D+00
 Coeff-Com: -0.969D-01 0.110D+01
 Coeff:     -0.969D-01 0.110D+01
 Gap=     0.583 Goal=   None    Shift=    0.000
 RMSDP=4.72D-07 MaxDP=4.42D-06 DE=-7.78D-10 OVMax= 6.70D-06

 Cycle   8  Pass 1  IDiag  1:
 E= -76.3186779968982     Delta-E=       -0.000000000086 Rises=F Damp=F
 DIIS: error= 9.34D-07 at cycle   3 NSaved=   3.
 NSaved= 3 IEnMin= 3 EnMin= -76.3186779968982     IErMin= 3 ErrMin= 9.34D-07
 ErrMax= 9.34D-07  0.00D+00 EMaxC= 1.00D-01 BMatC= 2.81D-11 BMatP= 5.18D-11
 IDIUse=1 WtCom= 1.00D+00 WtEn= 0.00D+00
 Coeff-Com: -0.193D+00 0.503D+00 0.690D+00
 Coeff:     -0.193D+00 0.503D+00 0.690D+00
 Gap=     0.583 Goal=   None    Shift=    0.000
 RMSDP=1.92D-07 MaxDP=1.78D-06 DE=-8.62D-11 OVMax= 2.30D-06

 Cycle   9  Pass 1  IDiag  1:
 E= -76.3186779969241     Delta-E=       -0.000000000026 Rises=F Damp=F
 DIIS: error= 1.16D-07 at cycle   4 NSaved=   4.
 NSaved= 4 IEnMin= 4 EnMin= -76.3186779969241     IErMin= 4 ErrMin= 1.16D-07
 ErrMax= 1.16D-07  0.00D+00 EMaxC= 1.00D-01 BMatC= 2.25D-13 BMatP= 2.81D-11
 IDIUse=1 WtCom= 1.00D+00 WtEn= 0.00D+00
 Coeff-Com:  0.566D-01-0.183D+00-0.172D+00 0.130D+01
 Coeff:      0.566D-01-0.183D+00-0.172D+00 0.130D+01
 Gap=     0.583 Goal=   None    Shift=    0.000
 RMSDP=5.17D-08 MaxDP=3.56D-07 DE=-2.58D-11 OVMax= 6.87D-07

 Cycle  10  Pass 1  IDiag  1:
 E= -76.3186779969246     Delta-E=       -0.000000000001 Rises=F Damp=F
 DIIS: error= 2.14D-08 at cycle   5 NSaved=   5.
 NSaved= 5 IEnMin= 5 EnMin= -76.3186779969246     IErMin= 5 ErrMin= 2.14D-08
 ErrMax= 2.14D-08  0.00D+00 EMaxC= 1.00D-01 BMatC= 6.74D-15 BMatP= 2.25D-13
 IDIUse=1 WtCom= 1.00D+00 WtEn= 0.00D+00
 Coeff-Com: -0.762D-02 0.265D-01 0.271D-01-0.333D+00 0.129D+01
 Coeff:     -0.762D-02 0.265D-01 0.271D-01-0.333D+00 0.129D+01
 Gap=     0.583 Goal=   None    Shift=    0.000
 RMSDP=9.62D-09 MaxDP=6.16D-08 DE=-5.40D-13 OVMax= 1.41D-07

 SCF Done:  E(RLC-wHPBE) =  -76.3186779969     A.U. after   10 cycles
            NFock= 10  Conv=0.96D-08     -V/T= 2.0096
 KE= 7.559116611779D+01 PE=-1.976726446733D+02 EE= 3.714215278724D+01
 Leave Link  502 at Mon Aug 29 15:04:52 2022, MaxMem=  6442450944 cpu:               4.7 elap:               0.3
 (Enter /mnt/gpfs3_amd/share/apps/amd/gaussian/g16-A.03/g16/l601.exe)
 Copying SCF densities to generalized density rwf, IOpCl= 0 IROHF=0.

 **********************************************************************

            Population analysis using the SCF density.

 **********************************************************************

 Orbital symmetries:
       Occupied  (A') (A') (A') (A') (A")
       Virtual   (A') (A') (A') (A') (A") (A') (A') (A') (A') (A")
                 (A") (A') (A') (A') (A") (A") (A') (A') (A')
 The electronic state is 1-A'.
 Alpha  occ. eigenvalues --  -19.01979  -1.13724  -0.62524  -0.52661  -0.44038
 Alpha virt. eigenvalues --    0.14225   0.21802   0.63859   0.73289   1.07286
 Alpha virt. eigenvalues --    1.07388   1.15884   1.25510   1.44803   1.50379
 Alpha virt. eigenvalues --    1.63756   1.92132   2.23234   2.29415   3.06528
 Alpha virt. eigenvalues --    3.09165   3.24006   3.56376   3.94022
          Condensed to atoms (all electrons):
               1          2          3
     1  O    7.722153   0.311292   0.310281
     2  H    0.311292   0.548252  -0.030702
     3  H    0.310281  -0.030702   0.547853
 Mulliken charges:
               1
     1  O   -0.343726
     2  H    0.171158
     3  H    0.172568
 Sum of Mulliken charges =  -0.00000
 Mulliken charges with hydrogens summed into heavy atoms:
               1
     1  O   -0.000000
 Electronic spatial extent (au):  <R**2>=             19.6658
 Charge=             -0.0000 electrons
 Dipole moment (field-independent basis, Debye):
    X=              0.0033    Y=             -2.2637    Z=              0.0000  Tot=              2.2637
 Quadrupole moment (field-independent basis, Debye-Ang):
   XX=             -4.4976   YY=             -5.6885   ZZ=             -7.1138
   XY=              0.0095   XZ=              0.0000   YZ=              0.0000
 Traceless Quadrupole moment (field-independent basis, Debye-Ang):
   XX=              1.2690   YY=              0.0781   ZZ=             -1.3472
   XY=              0.0095   XZ=              0.0000   YZ=              0.0000
 Octapole moment (field-independent basis, Debye-Ang**2):
  XXX=              0.0082  YYY=             -1.3291  ZZZ=              0.0000  XYY=             -0.0075
  XXY=             -1.3166  XXZ=              0.0000  XZZ=              0.0032  YZZ=             -0.2909
  YYZ=              0.0000  XYZ=              0.0000
 Hexadecapole moment (field-independent basis, Debye-Ang**3):
 XXXX=             -6.4971 YYYY=             -6.5893 ZZZZ=             -4.9650 XXXY=             -0.0047
 XXXZ=              0.0000 YYYX=             -0.0003 YYYZ=              0.0000 ZZZX=              0.0000
 ZZZY=              0.0000 XXYY=             -1.6606 XXZZ=             -2.1642 YYZZ=             -2.0212
 XXYZ=              0.0000 YYXZ=              0.0000 ZZXY=             -0.0038
 N-N= 8.620647771374D+00 E-N=-1.976726446418D+02  KE= 7.559116611779D+01
 Symmetry A'   KE= 7.094360217642D+01
 Symmetry A"   KE= 4.647563941371D+00
 No NMR shielding tensors so no spin-rotation constants.
 Leave Link  601 at Mon Aug 29 15:04:52 2022, MaxMem=  6442450944 cpu:               1.1 elap:               0.1
 (Enter /mnt/gpfs3_amd/share/apps/amd/gaussian/g16-A.03/g16/l9999.exe)

 Test job not archived.
 1\1\GINC-MCC-LOGIN002\SP\RLC-wHPBE\def2SVP\H2O1\RDU230\29-Aug-2022\0\\
 #P LC-wHPBE/Def2SVP iop(3/107=0499400000, 3/108=0499400000)\\H2 O1\\0,
 1\O,0,0.,0.138187,0.\H,0,0.755435,-0.549339,0.\H,0,-0.755435,-0.556153
 ,0.\\Version=AM64L-G16RevA.03\State=1-A'\HF=-76.318678\RMSD=9.618e-09\
 Dipole=0.0013157,-0.8905953,0.\Quadrupole=0.9434862,0.0580914,-1.00157
 77,0.0070306,0.,0.\PG=CS [SG(H2O1)]\\@


 THE WISE MAN HAS THE POWER TO REASON AWAY
 WHAT A FOOL BELIEVES.
                     - DOOBIE BROTHERS
 Job cpu time:       0 days  0 hours  0 minutes 14.6 seconds.
 Elapsed time:       0 days  0 hours  0 minutes  1.0 seconds.
 File lengths (MBytes):  RWF=    136 Int=      0 D2E=      0 Chk=     16 Scr=     16
 Normal termination of Gaussian 16 at Mon Aug 29 15:04:52 2022.
