 Entering Gaussian System, Link 0=/mnt/gpfs3_amd/share/apps/amd/gaussian/g16-A.03/g16/g16
 Input=/scratch/rdu230/d3tales/high_throughput/runfiles//05XICU/gaussian/gas_phase/opt/freq_opt_cation1.com
 Output=/scratch/rdu230/d3tales/high_throughput/runfiles//05XICU/gaussian/gas_phase/opt/freq_opt_cation1.log
 Initial command:
 /mnt/gpfs3_amd/share/apps/amd/gaussian/g16-A.03/g16/l1.exe "/scratch/rdu230/d3tales/high_throughput/runfiles/05XICU/gaussian/gas_phase/opt/Gau-3221164.inp" -scrdir="/scratch/rdu230/d3tales/high_throughput/runfiles/05XICU/gaussian/gas_phase/opt/"
 Entering Link 1 = /mnt/gpfs3_amd/share/apps/amd/gaussian/g16-A.03/g16/l1.exe PID=   3221165.
  
 Copyright (c) 1988,1990,1992,1993,1995,1998,2003,2009,2016,
            Gaussian, Inc.  All Rights Reserved.
  
 This is part of the Gaussian(R) 16 program.  It is based on
 the Gaussian(R) 09 system (copyright 2009, Gaussian, Inc.),
 the Gaussian(R) 03 system (copyright 2003, Gaussian, Inc.),
 the Gaussian(R) 98 system (copyright 1998, Gaussian, Inc.),
 the Gaussian(R) 94 system (copyright 1995, Gaussian, Inc.),
 the Gaussian 92(TM) system (copyright 1992, Gaussian, Inc.),
 the Gaussian 90(TM) system (copyright 1990, Gaussian, Inc.),
 the Gaussian 88(TM) system (copyright 1988, Gaussian, Inc.),
 the Gaussian 86(TM) system (copyright 1986, Carnegie Mellon
 University), and the Gaussian 82(TM) system (copyright 1983,
 Carnegie Mellon University). Gaussian is a federally registered
 trademark of Gaussian, Inc.
  
 This software contains proprietary and confidential information,
 including trade secrets, belonging to Gaussian, Inc.
  
 This software is provided under written license and may be
 used, copied, transmitted, or stored only in accord with that
 written license.
  
 The following legend is applicable only to US Government
 contracts under FAR:
  
                    RESTRICTED RIGHTS LEGEND
  
 Use, reproduction and disclosure by the US Government is
 subject to restrictions as set forth in subparagraphs (a)
 and (c) of the Commercial Computer Software - Restricted
 Rights clause in FAR 52.227-19.
  
 Gaussian, Inc.
 340 Quinnipiac St., Bldg. 40, Wallingford CT 06492
  
  
 ---------------------------------------------------------------
 Warning -- This program may not be used in any manner that
 competes with the business of Gaussian, Inc. or will provide
 assistance to any competitor of Gaussian, Inc.  The licensee
 of this program is prohibited from giving any competitor of
 Gaussian, Inc. access to this program.  By using this program,
 the user acknowledges that Gaussian, Inc. is engaged in the
 business of creating and licensing software in the field of
 computational chemistry and represents and warrants to the
 licensee that it is not a competitor of Gaussian, Inc. and that
 it will not use this program in any manner prohibited above.
 ---------------------------------------------------------------
  

 Cite this work as:
 Gaussian 16, Revision A.03,
 M. J. Frisch, G. W. Trucks, H. B. Schlegel, G. E. Scuseria, 
 M. A. Robb, J. R. Cheeseman, G. Scalmani, V. Barone, 
 G. A. Petersson, H. Nakatsuji, X. Li, M. Caricato, A. V. Marenich, 
 J. Bloino, B. G. Janesko, R. Gomperts, B. Mennucci, H. P. Hratchian, 
 J. V. Ortiz, A. F. Izmaylov, J. L. Sonnenberg, D. Williams-Young, 
 F. Ding, F. Lipparini, F. Egidi, J. Goings, B. Peng, A. Petrone, 
 T. Henderson, D. Ranasinghe, V. G. Zakrzewski, J. Gao, N. Rega, 
 G. Zheng, W. Liang, M. Hada, M. Ehara, K. Toyota, R. Fukuda, 
 J. Hasegawa, M. Ishida, T. Nakajima, Y. Honda, O. Kitao, H. Nakai, 
 T. Vreven, K. Throssell, J. A. Montgomery, Jr., J. E. Peralta, 
 F. Ogliaro, M. J. Bearpark, J. J. Heyd, E. N. Brothers, K. N. Kudin, 
 V. N. Staroverov, T. A. Keith, R. Kobayashi, J. Normand, 
 K. Raghavachari, A. P. Rendell, J. C. Burant, S. S. Iyengar, 
 J. Tomasi, M. Cossi, J. M. Millam, M. Klene, C. Adamo, R. Cammi, 
 J. W. Ochterski, R. L. Martin, K. Morokuma, O. Farkas, 
 J. B. Foresman, and D. J. Fox, Gaussian, Inc., Wallingford CT, 2016.
 
 ******************************************
 Gaussian 16:  AM64L-G16RevA.03 25-Dec-2016
                15-Aug-2022 
 ******************************************
 %chk=/scratch/rdu230/d3tales/high_throughput/runfiles//05XICU/gaussian/gas_phase
 /opt/freq_opt_cation1.chk
 %mem=48GB
 %nprocshared=16
 Will use up to   16 processors via shared memory.
 %oldchk=/scratch/rdu230/d3tales/high_throughput/runfiles//05XICU/gaussian/gas_ph
 ase/opt/opt_cation1.chk
 Copying data from "/scratch/rdu230/d3tales/high_throughput/runfiles//05XICU/gaussian/gas_phase/opt/opt_cation1.chk" to current chk file "/scratch/rdu230/d3tales/high_throughput/runfiles//05XICU/gaussian/gas_phase/opt/freq_opt_cation1.chk"
 IOpt=  2 FromEx=T IUOpen= 4 IOptOp= 5 NList=   0 IFRang= 0 IUIn= 4 IUOut= 2.
 ----------------------------------------------------------------------
 #P LC-wHPBE/Def2SVP Geom=AllCheck Guess=TCheck SCRF=Check freq iop(3/1
 07=0499400000, 3/108=0499400000)
 ----------------------------------------------------------------------
 1/10=4,29=7,30=1,38=1,40=1/1,3;
 2/12=2,40=1/2;
 3/5=43,7=101,11=2,14=-4,25=1,30=1,70=2,71=2,74=-71,107=499400000,108=499400000,116=-2,140=1/1,2,3;
 4/5=101/1;
 5/5=2,38=6,98=1/2;
 8/6=4,10=90,11=11/1;
 11/6=1,8=1,9=11,15=111,16=1/1,2,10;
 10/6=1/2;
 6/7=2,8=2,9=2,10=2,28=1/1;
 7/8=1,10=1,25=1/1,2,3,16;
 1/10=4,30=1/3;
 99//99;
 Leave Link    1 at Mon Aug 15 15:11:21 2022, MaxMem=  6442450944 cpu:               4.9 elap:               0.3
 (Enter /mnt/gpfs3_amd/share/apps/amd/gaussian/g16-A.03/g16/l101.exe)
 Structure from the checkpoint file:  "/scratch/rdu230/d3tales/high_throughput/runfiles//05XICU/gaussian/gas_phase/opt/freq_opt_cation1.chk"
 -----
 H2 O1
 -----
 Charge =  1 Multiplicity = 2
 Redundant internal coordinates found in file.  (old form).
 O,0,-0.0003056397,0.3834320402,0.
 H,0,-0.8228852783,-0.1923798816,0.
 H,0,0.823190918,-0.1910511586,0.
 Recover connectivity data from disk.
 ITRead=  0  0  0
 MicOpt= -1 -1 -1
 NAtoms=      3 NQM=        3 NQMF=       0 NMMI=      0 NMMIF=      0
                NMic=       0 NMicF=      0.
                    Isotopes and Nuclear Properties:
 (Nuclear quadrupole moments (NQMom) in fm**2, nuclear magnetic moments (NMagM)
  in nuclear magnetons)

  Atom         1           2           3
 IAtWgt=          16           1           1
 AtmWgt=  15.9949146   1.0078250   1.0078250
 NucSpn=           0           1           1
 AtZEff=   5.6000000   1.0000000   1.0000000
 NQMom=    0.0000000   0.0000000   0.0000000
 NMagM=    0.0000000   2.7928460   2.7928460
 AtZNuc=   8.0000000   1.0000000   1.0000000
 Leave Link  101 at Mon Aug 15 15:11:21 2022, MaxMem=  6442450944 cpu:               2.7 elap:               0.2
 (Enter /mnt/gpfs3_amd/share/apps/amd/gaussian/g16-A.03/g16/l103.exe)

 GradGradGradGradGradGradGradGradGradGradGradGradGradGradGradGradGradGrad
 Berny optimization.
 Initialization pass.
                           ----------------------------
                           !    Initial Parameters    !
                           ! (Angstroms and Degrees)  !
 --------------------------                            --------------------------
 ! Name  Definition              Value          Derivative Info.                !
 --------------------------------------------------------------------------------
 ! R1    R(1,2)                  1.0041         calculate D2E/DX2 analytically  !
 ! R2    R(1,3)                  1.0041         calculate D2E/DX2 analytically  !
 ! A1    A(2,1,3)              110.1075         calculate D2E/DX2 analytically  !
 --------------------------------------------------------------------------------
 Trust Radius=3.00D-01 FncErr=1.00D-07 GrdErr=1.00D-07 EigMax=2.50D+02 EigMin=1.00D-04
 Number of steps in this run=      2 maximum allowed number of steps=      2.
 GradGradGradGradGradGradGradGradGradGradGradGradGradGradGradGradGradGrad

 Leave Link  103 at Mon Aug 15 15:11:21 2022, MaxMem=  6442450944 cpu:               0.1 elap:               0.0
 (Enter /mnt/gpfs3_amd/share/apps/amd/gaussian/g16-A.03/g16/l202.exe)
                          Input orientation:                          
 ---------------------------------------------------------------------
 Center     Atomic      Atomic             Coordinates (Angstroms)
 Number     Number       Type             X           Y           Z
 ---------------------------------------------------------------------
      1          8           0       -0.000306    0.383432   -0.000000
      2          1           0       -0.822885   -0.192380   -0.000000
      3          1           0        0.823191   -0.191051    0.000000
 ---------------------------------------------------------------------
                    Distance matrix (angstroms):
                    1          2          3
     1  O    0.000000
     2  H    1.004090   0.000000
     3  H    1.004080   1.646077   0.000000
 Stoichiometry    H2O(1+,2)
 Framework group  CS[SG(H2O)]
 Deg. of freedom     3
 Full point group                 CS      NOp   2
 RotChk:  IX=0 Diff= 3.18D-16
 Largest Abelian subgroup         CS      NOp   2
 Largest concise Abelian subgroup C1      NOp   1
                         Standard orientation:                         
 ---------------------------------------------------------------------
 Center     Atomic      Atomic             Coordinates (Angstroms)
 Number     Number       Type             X           Y           Z
 ---------------------------------------------------------------------
      1          8           0        0.000000    0.115030    0.000000
      2          1           0        0.823038   -0.460126    0.000000
      3          1           0       -0.823038   -0.460110   -0.000000
 ---------------------------------------------------------------------
 Rotational constants (GHZ):         853.4707164         370.1364879         258.1716194
 Leave Link  202 at Mon Aug 15 15:11:21 2022, MaxMem=  6442450944 cpu:               0.1 elap:               0.0
 (Enter /mnt/gpfs3_amd/share/apps/amd/gaussian/g16-A.03/g16/l301.exe)
 Standard basis: def2SVP (5D, 7F)
 Ernie: Thresh=  0.10000D-02 Tol=  0.10000D-05 Strict=F.
 There are    19 symmetry adapted cartesian basis functions of A'  symmetry.
 There are     6 symmetry adapted cartesian basis functions of A"  symmetry.
 There are    18 symmetry adapted basis functions of A'  symmetry.
 There are     6 symmetry adapted basis functions of A"  symmetry.
    24 basis functions,    39 primitive gaussians,    25 cartesian basis functions
     5 alpha electrons        4 beta electrons
       nuclear repulsion energy         8.7538652796 Hartrees.
 IExCor=33909 DFT=T Ex+Corr=LC-wHPBE ExCW=0 ScaHFX=  1.000000
 ScaDFX=  1.000000  1.000000  1.000000  1.000000 ScalE2=  1.000000  1.000000
 IRadAn=      5 IRanWt=     -1 IRanGd=            0 ICorTp=0 IEmpDi=  4
 HFx  wShort=  0.000000 wLong=  0.499400 cFull=  0.000000 cShort=  0.000000 cLong=  1.000000
 DFx  wShort=  0.000000 wLong=  0.499400 cFull=  0.000000 cShort=  1.000000 cLong=  0.000000
 NAtoms=    3 NActive=    3 NUniq=    3 SFac= 1.00D+00 NAtFMM=   60 NAOKFM=F Big=F
 Integral buffers will be    131072 words long.
 Raffenetti 2 integral format.
 Two-electron integral symmetry is turned on.
 Leave Link  301 at Mon Aug 15 15:11:21 2022, MaxMem=  6442450944 cpu:               0.4 elap:               0.0
 (Enter /mnt/gpfs3_amd/share/apps/amd/gaussian/g16-A.03/g16/l302.exe)
 NPDir=0 NMtPBC=     1 NCelOv=     1 NCel=       1 NClECP=     1 NCelD=      1
         NCelK=      1 NCelE2=     1 NClLst=     1 CellRange=     0.0.
 One-electron integrals computed using PRISM.
 One-electron integral symmetry used in STVInt
   2 Symmetry operations used in ECPInt.
 ECPInt:  NShTT=      78 NPrTT=     272 LenC2=      79 LenP2D=     271.
 LDataN:  DoStor=T MaxTD1= 4 Len=   56
 NBasis=    24 RedAO= T EigKep=  4.28D-02  NBF=    18     6
 NBsUse=    24 1.00D-06 EigRej= -1.00D+00 NBFU=    18     6
 Precomputing XC quadrature grid using
 IXCGrd= 4 IRadAn=           5 IRanWt=          -1 IRanGd=           0 AccXCQ= 0.00D+00.
 Generated NRdTot=       0 NPtTot=           0 NUsed=           0 NTot=          32
 NSgBfM=    25    25    25    25    25 MxSgAt=     3 MxSgA2=     3.
 Leave Link  302 at Mon Aug 15 15:11:21 2022, MaxMem=  6442450944 cpu:               1.5 elap:               0.1
 (Enter /mnt/gpfs3_amd/share/apps/amd/gaussian/g16-A.03/g16/l303.exe)
 DipDrv:  MaxL=1.
 Leave Link  303 at Mon Aug 15 15:11:21 2022, MaxMem=  6442450944 cpu:               0.1 elap:               0.0
 (Enter /mnt/gpfs3_amd/share/apps/amd/gaussian/g16-A.03/g16/l401.exe)
 Initial guess from the checkpoint file:  "/scratch/rdu230/d3tales/high_throughput/runfiles//05XICU/gaussian/gas_phase/opt/freq_opt_cation1.chk"
 B after Tr=     0.000000    0.000000   -0.000000
         Rot=    1.000000    0.000000    0.000000    0.000000 Ang=   0.00 deg.
 Guess basis will be translated and rotated to current coordinates.
 JPrj=2 DoOrth=T DoCkMO=T.
 Initial guess orbital symmetries:
 Alpha Orbitals:
       Occupied  (A') (A') (A') (A") (A')
       Virtual   (A') (A') (A') (A') (A") (A') (A') (A') (A") (A')
                 (A") (A') (A') (A') (A") (A") (A') (A') (A')
 Beta  Orbitals:
       Occupied  (A') (A') (A') (A')
       Virtual   (A") (A') (A') (A') (A') (A') (A") (A') (A') (A")
                 (A') (A") (A') (A') (A') (A") (A") (A') (A') (A')
 The electronic state of the initial guess is 2-A".
 Initial guess <Sx>= 0.0000 <Sy>= 0.0000 <Sz>= 0.5000 <S**2>= 0.7525 S= 0.5012
 Leave Link  401 at Mon Aug 15 15:11:22 2022, MaxMem=  6442450944 cpu:               0.6 elap:               0.0
 (Enter /mnt/gpfs3_amd/share/apps/amd/gaussian/g16-A.03/g16/l502.exe)
 Keep R1 and R2 ints in memory in symmetry-blocked form, NReq=13884302.
 FoFCou: FMM=F IPFlag=           0 FMFlag=           0 FMFlg1=           0
         NFxFlg=           0 DoJE=F BraDBF=F KetDBF=F FulRan=T
         wScrn=  0.000000 ICntrl=       600 IOpCl=  0 I1Cent=           0 NGrid=           0
         NMat0=    1 NMatS0=    300 NMatT0=    0 NMatD0=    1 NMtDS0=    0 NMtDT0=    0
 Petite list used in FoFCou.
 UHF open shell SCF:
 Using DIIS extrapolation, IDIIS=  1040.
 NGot=  6442450944 LenX=  6442399050 LenY=  6442397984
 Requested convergence on RMS density matrix=1.00D-08 within 128 cycles.
 Requested convergence on MAX density matrix=1.00D-06.
 Requested convergence on             energy=1.00D-06.
 No special actions if energy rises.

 Cycle   1  Pass 1  IDiag  1:
 E= -75.8743329905610    
 DIIS: error= 3.73D-09 at cycle   1 NSaved=   1.
 NSaved= 1 IEnMin= 1 EnMin= -75.8743329905610     IErMin= 1 ErrMin= 3.73D-09
 ErrMax= 3.73D-09  0.00D+00 EMaxC= 1.00D-01 BMatC= 5.25D-16 BMatP= 5.25D-16
 IDIUse=1 WtCom= 1.00D+00 WtEn= 0.00D+00
 Coeff-Com:  0.100D+01
 Coeff:      0.100D+01
 Gap=     0.823 Goal=   None    Shift=    0.000
 Gap=     0.520 Goal=   None    Shift=    0.000
 RMSDP=5.08D-10 MaxDP=5.82D-09              OVMax= 8.70D-09

 SCF Done:  E(ULC-wHPBE) =  -75.8743329906     A.U. after    1 cycles
            NFock=  1  Conv=0.51D-09     -V/T= 2.0066
 <Sx>= 0.0000 <Sy>= 0.0000 <Sz>= 0.5000 <S**2>= 0.7525 S= 0.5012
 <L.S>= 0.000000000000E+00
 KE= 7.537481843762D+01 PE=-1.927336751563D+02 EE= 3.273065844859D+01
 Annihilation of the first spin contaminant:
 S**2 before annihilation     0.7525,   after     0.7500
 Leave Link  502 at Mon Aug 15 15:11:22 2022, MaxMem=  6442450944 cpu:               3.8 elap:               0.2
 (Enter /mnt/gpfs3_amd/share/apps/amd/gaussian/g16-A.03/g16/l801.exe)
 DoSCS=F DFT=T ScalE2(SS,OS)=  1.000000  1.000000
 Range of M.O.s used for correlation:     1    24
 NBasis=    24 NAE=     5 NBE=     4 NFC=     0 NFV=     0
 NROrb=     24 NOA=     5 NOB=     4 NVA=    19 NVB=    20
 Leave Link  801 at Mon Aug 15 15:11:22 2022, MaxMem=  6442450944 cpu:               0.2 elap:               0.0
 (Enter /mnt/gpfs3_amd/share/apps/amd/gaussian/g16-A.03/g16/l1101.exe)
 Using compressed storage, NAtomX=     3.
 Will process      4 centers per pass.
   2 Symmetry operations used in ECPInt.
 ECPInt:  NShTT=      78 NPrTT=     272 LenC2=      79 LenP2D=     271.
 LDataN:  DoStor=T MaxTD1= 5 Len=  102
 Leave Link 1101 at Mon Aug 15 15:11:22 2022, MaxMem=  6442450944 cpu:               1.4 elap:               0.1
 (Enter /mnt/gpfs3_amd/share/apps/amd/gaussian/g16-A.03/g16/l1102.exe)
 Symmetrizing basis deriv contribution to polar:
 IMax=3 JMax=2 DiffMx= 0.00D+00
 Leave Link 1102 at Mon Aug 15 15:11:22 2022, MaxMem=  6442450944 cpu:               0.2 elap:               0.0
 (Enter /mnt/gpfs3_amd/share/apps/amd/gaussian/g16-A.03/g16/l1110.exe)
 Forming Gx(P) for the SCF density, NAtomX=     3.
 Integral derivatives from FoFJK, PRISM(SPDF).
 Do as many integral derivatives as possible in FoFJK.
 G2DrvN: MDV=    6442450604.
 G2DrvN: will do     4 centers at a time, making    1 passes.
 Calling FoFCou, ICntrl=  3107 FMM=F I1Cent=   0 AccDes= 0.00D+00.
 FoFJK:  IHMeth= 1 ICntrl=    3107 DoSepK=T KAlg= 0 I1Cent=           0 FoldK=F
 IRaf=         1 NMat=       1 IRICut=       1 DoRegI=T DoRafI=F ISym2E= 1 IDoP0=0 IntGTp=1.
 FoFCou: FMM=F IPFlag=           0 FMFlag=      100000 FMFlg1=           0
         NFxFlg=           0 DoJE=F BraDBF=F KetDBF=F FulRan=T
         wScrn=  0.000000 ICntrl=      3507 IOpCl=  0 I1Cent=           0 NGrid=           0
         NMat0=    1 NMatS0=      1 NMatT0=    0 NMatD0=    1 NMtDS0=    0 NMtDT0=    0
 Petite list used in FoFCou.
 End of G2Drv F.D. properties file   721 does not exist.
 End of G2Drv F.D. properties file   722 does not exist.
 End of G2Drv F.D. properties file   788 does not exist.
 Leave Link 1110 at Mon Aug 15 15:11:22 2022, MaxMem=  6442450944 cpu:               6.0 elap:               0.4
 (Enter /mnt/gpfs3_amd/share/apps/amd/gaussian/g16-A.03/g16/l1002.exe)
 Minotr:  UHF open shell wavefunction.
          IDoAtm=111
          Direct CPHF calculation.
          Differentiating once with respect to electric field.
                with respect to dipole field.
          Differentiating once with respect to nuclear coordinates.
          Using symmetry in CPHF.
          Requested convergence is 1.0D-08 RMS, and 1.0D-07 maximum.
          Secondary convergence is 1.0D-12 RMS, and 1.0D-12 maximum.
          NewPWx=T KeepS1=F KeepF1=F KeepIn=T MapXYZ=F SortEE=F KeepMc=T.
          881 words used for storage of precomputed grid.
 Keep R1 and R2 ints in memory in symmetry-blocked form, NReq=13831010.
 FoFCou: FMM=F IPFlag=           0 FMFlag=           0 FMFlg1=           0
         NFxFlg=           0 DoJE=F BraDBF=F KetDBF=F FulRan=T
         wScrn=  0.000000 ICntrl=       600 IOpCl=  0 I1Cent=           0 NGrid=           0
         NMat0=    1 NMatS0=    300 NMatT0=    0 NMatD0=    1 NMtDS0=    0 NMtDT0=    0
 Petite list used in FoFCou.
          MDV=    6442450944 using IRadAn=       1.
          Solving linear equations simultaneously, MaxMat=       0.
          There are    12 degrees of freedom in the 1st order CPHF.  IDoFFX=6 NUNeed=     3.
      9 vectors produced by pass  0 Test12= 1.46D-15 8.33D-09 XBig12= 2.05D+00 6.67D-01.
 AX will form     9 AO Fock derivatives at one time.
      9 vectors produced by pass  1 Test12= 1.46D-15 8.33D-09 XBig12= 9.39D-02 1.37D-01.
      9 vectors produced by pass  2 Test12= 1.46D-15 8.33D-09 XBig12= 2.07D-03 2.08D-02.
      9 vectors produced by pass  3 Test12= 1.46D-15 8.33D-09 XBig12= 1.39D-05 1.39D-03.
      9 vectors produced by pass  4 Test12= 1.46D-15 8.33D-09 XBig12= 1.45D-07 1.25D-04.
      9 vectors produced by pass  5 Test12= 1.46D-15 8.33D-09 XBig12= 1.04D-09 1.09D-05.
      8 vectors produced by pass  6 Test12= 1.46D-15 8.33D-09 XBig12= 7.86D-12 9.93D-07.
      2 vectors produced by pass  7 Test12= 1.46D-15 8.33D-09 XBig12= 3.00D-14 4.72D-08.
 InvSVY:  IOpt=1 It=  1 EMax= 2.70D-16
 Solved reduced A of dimension    64 with     9 vectors.
 FullF1:  Do perturbations      1 to       3.
 Isotropic polarizability for W=    0.000000        3.93 Bohr**3.
 End of Minotr F.D. properties file   721 does not exist.
 End of Minotr F.D. properties file   722 does not exist.
 End of Minotr F.D. properties file   788 does not exist.
 Leave Link 1002 at Mon Aug 15 15:11:23 2022, MaxMem=  6442450944 cpu:               7.4 elap:               0.5
 (Enter /mnt/gpfs3_amd/share/apps/amd/gaussian/g16-A.03/g16/l601.exe)
 Copying SCF densities to generalized density rwf, IOpCl= 1 IROHF=0.

 **********************************************************************

            Population analysis using the SCF density.

 **********************************************************************

 Orbital symmetries:
 Alpha Orbitals:
       Occupied  (A') (A') (A') (A") (A')
       Virtual   (A') (A') (A') (A') (A") (A') (A') (A') (A") (A')
                 (A") (A') (A') (A') (A") (A") (A') (A') (A')
 Beta  Orbitals:
       Occupied  (A') (A') (A') (A')
       Virtual   (A") (A') (A') (A') (A') (A') (A") (A') (A') (A")
                 (A') (A") (A') (A') (A') (A") (A") (A') (A') (A')
 The electronic state is 2-A".
 Alpha  occ. eigenvalues --  -19.58099  -1.66559  -1.14508  -1.02900  -1.00093
 Alpha virt. eigenvalues --   -0.17761  -0.10058   0.31146   0.31655   0.58591
 Alpha virt. eigenvalues --    0.63683   0.74207   0.79672   1.03835   1.21128
 Alpha virt. eigenvalues --    1.29260   1.46738   1.85920   1.86343   2.49884
 Alpha virt. eigenvalues --    2.59081   2.74406   3.14287   3.41585
  Beta  occ. eigenvalues --  -19.55524  -1.59048  -1.12371  -0.97102
  Beta virt. eigenvalues --   -0.45125  -0.16775  -0.09425   0.31145   0.32609
  Beta virt. eigenvalues --    0.65314   0.68057   0.75525   0.82932   1.05950
  Beta virt. eigenvalues --    1.22544   1.31380   1.46525   1.86585   1.91223
  Beta virt. eigenvalues --    2.57899   2.67091   2.77892   3.20136   3.43036
          Condensed to atoms (all electrons):
               1          2          3
     1  O    7.033238   0.321789   0.321792
     2  H    0.321789   0.347228  -0.007430
     3  H    0.321792  -0.007430   0.347232
          Atomic-Atomic Spin Densities.
               1          2          3
     1  O    1.059476  -0.002275  -0.002275
     2  H   -0.002275  -0.026034   0.000846
     3  H   -0.002275   0.000846  -0.026034
 Mulliken charges and spin densities:
               1          2
     1  O    0.323180   1.054926
     2  H    0.338414  -0.027463
     3  H    0.338406  -0.027463
 Sum of Mulliken charges =   1.00000   1.00000
 Mulliken charges and spin densities with hydrogens summed into heavy atoms:
               1          2
     1  O    1.000000   1.000000
 APT charges:
               1
     1  O   -0.054570
     2  H    0.527287
     3  H    0.527283
 Sum of APT charges =   1.00000
 APT charges with hydrogens summed into heavy atoms:
               1
     1  O    1.000000
 Electronic spatial extent (au):  <R**2>=             14.7023
 Charge=              1.0000 electrons
 Dipole moment (field-independent basis, Debye):
    X=              0.0000    Y=             -2.2700    Z=             -0.0000  Tot=              2.2700
 Quadrupole moment (field-independent basis, Debye-Ang):
   XX=             -1.5940   YY=             -4.4079   ZZ=             -4.7237
   XY=             -0.0000   XZ=              0.0000   YZ=              0.0000
 Traceless Quadrupole moment (field-independent basis, Debye-Ang):
   XX=              1.9812   YY=             -0.8327   ZZ=             -1.1485
   XY=             -0.0000   XZ=              0.0000   YZ=              0.0000
 Octapole moment (field-independent basis, Debye-Ang**2):
  XXX=              0.0000  YYY=             -1.4546  ZZZ=              0.0000  XYY=              0.0000
  XXY=             -2.0274  XXZ=             -0.0000  XZZ=             -0.0000  YZZ=             -0.2347
  YYZ=             -0.0000  XYZ=             -0.0000
 Hexadecapole moment (field-independent basis, Debye-Ang**3):
 XXXX=             -2.3304 YYYY=             -4.2423 ZZZZ=             -2.5856 XXXY=             -0.0000
 XXXZ=              0.0000 YYYX=             -0.0000 YYYZ=             -0.0000 ZZZX=             -0.0000
 ZZZY=             -0.0000 XXYY=             -0.6771 XXZZ=             -1.3193 YYZZ=             -1.1819
 XXYZ=              0.0000 YYXZ=              0.0000 ZZXY=              0.0000
 N-N= 8.753865279570D+00 E-N=-1.927336751461D+02  KE= 7.537481843762D+01
 Symmetry A'   KE= 7.265124016854D+01
 Symmetry A"   KE= 2.723578269073D+00
 Symmetry A'   SP= 5.512409105568D-15
 Symmetry A"   SP= 1.000000000000D+00
  Exact polarizability:   5.290  -0.000   3.583   0.000   0.000   2.929
 Approx polarizability:   4.775  -0.000   3.296   0.000   0.000   2.341
                          Isotropic Fermi Contact Couplings
        Atom                 a.u.       MegaHertz       Gauss      10(-4) cm-1
     1  O(17)              0.29796    -180.61934     -64.44947     -60.24813
     2  H(1)              -0.01402     -62.66085     -22.35895     -20.90141
     3  H(1)              -0.01402     -62.66055     -22.35884     -20.90131
 --------------------------------------------------------
       Center         ----  Spin Dipole Couplings  ----
                      3XX-RR        3YY-RR        3ZZ-RR
 --------------------------------------------------------
     1   Atom       -1.978168     -2.037609      4.015778
     2   Atom        0.077443     -0.031050     -0.046392
     3   Atom        0.077447     -0.031055     -0.046392
 --------------------------------------------------------
                        XY            XZ            YZ
 --------------------------------------------------------
     1   Atom       -0.000002     -0.000000     -0.000000
     2   Atom       -0.134368      0.000000     -0.000000
     3   Atom        0.134370      0.000000      0.000000
 --------------------------------------------------------


 ---------------------------------------------------------------------------------
              Anisotropic Spin Dipole Couplings in Principal Axis System
 ---------------------------------------------------------------------------------

       Atom             a.u.   MegaHertz   Gauss  10(-4) cm-1        Axes

              Baa    -2.0376   147.440    52.610    49.181  0.0000  1.0000 -0.0000
     1 O(17)  Bbb    -1.9782   143.139    51.076    47.746  1.0000 -0.0000  0.0000
              Bcc     4.0158  -290.579  -103.686   -96.927  0.0000  0.0000  1.0000
 
              Baa    -0.1217   -64.938   -23.172   -21.661  0.5593  0.8290 -0.0000
     2 H(1)   Bbb    -0.0464   -24.753    -8.832    -8.257  0.0000  0.0000  1.0000
              Bcc     0.1681    89.691    32.004    29.918  0.8290 -0.5593  0.0000
 
              Baa    -0.1217   -64.940   -23.172   -21.662 -0.5593  0.8290  0.0000
     3 H(1)   Bbb    -0.0464   -24.753    -8.832    -8.257  0.0000  0.0000  1.0000
              Bcc     0.1681    89.693    32.005    29.918  0.8290  0.5593 -0.0000
 

 ---------------------------------------------------------------------------------

 No NMR shielding tensors so no spin-rotation constants.
 Leave Link  601 at Mon Aug 15 15:11:23 2022, MaxMem=  6442450944 cpu:               2.6 elap:               0.2
 (Enter /mnt/gpfs3_amd/share/apps/amd/gaussian/g16-A.03/g16/l701.exe)
 ... and contract with generalized density number  0.
 Compute integral second derivatives.
   2 Symmetry operations used in ECPInt.
 ECPInt:  NShTT=      78 NPrTT=     272 LenC2=      79 LenP2D=     271.
 LDataN:  DoStor=T MaxTD1= 6 Len=  172
 Leave Link  701 at Mon Aug 15 15:11:23 2022, MaxMem=  6442450944 cpu:               1.8 elap:               0.1
 (Enter /mnt/gpfs3_amd/share/apps/amd/gaussian/g16-A.03/g16/l702.exe)
 L702 exits ... SP integral derivatives will be done elsewhere.
 Leave Link  702 at Mon Aug 15 15:11:23 2022, MaxMem=  6442450944 cpu:               0.2 elap:               0.0
 (Enter /mnt/gpfs3_amd/share/apps/amd/gaussian/g16-A.03/g16/l703.exe)
 Integral derivatives from FoFJK, PRISM(SPDF).
 Compute integral second derivatives, UseDBF=F ICtDFT=           0.
 Calling FoFJK, ICntrl=    100127 FMM=F ISym2X=1 I1Cent= 0 IOpClX= 1 NMat=1 NMatS=1 NMatT=0.
 FoFJK:  IHMeth= 1 ICntrl=  100127 DoSepK=T KAlg= 0 I1Cent=           0 FoldK=F
 IRaf=         1 NMat=       1 IRICut=       1 DoRegI=T DoRafI=F ISym2E= 1 IDoP0=0 IntGTp=1.
 FoFCou: FMM=F IPFlag=           0 FMFlag=      100000 FMFlg1=         800
         NFxFlg=           0 DoJE=F BraDBF=F KetDBF=F FulRan=T
         wScrn=  0.000000 ICntrl=    100527 IOpCl=  0 I1Cent=           0 NGrid=           0
         NMat0=    1 NMatS0=      1 NMatT0=    0 NMatD0=    1 NMtDS0=    0 NMtDT0=    0
 Petite list used in FoFCou.
 Leave Link  703 at Mon Aug 15 15:11:24 2022, MaxMem=  6442450944 cpu:               9.1 elap:               0.6
 (Enter /mnt/gpfs3_amd/share/apps/amd/gaussian/g16-A.03/g16/l716.exe)
 Dipole        = 2.37914709D-06-8.93076755D-01-8.46341065D-33
 Polarizability= 5.28965694D+00-4.23628490D-05 3.58254216D+00
                 1.79174593D-19 1.37966789D-13 2.92907797D+00
 Full mass-weighted force constant matrix:
 Low frequencies ---    0.0013    0.0015    0.0018   38.6692   52.8114   71.4545
 Low frequencies --- 1385.6816 3449.7570 3500.7379
 Diagonal vibrational polarizability:
        1.2433121       2.7617970       0.0000000
 Harmonic frequencies (cm**-1), IR intensities (KM/Mole), Raman scattering
 activities (A**4/AMU), depolarization ratios for plane and unpolarized
 incident light, reduced masses (AMU), force constants (mDyne/A),
 and normal coordinates:
                      1                      2                      3
                     A'                     A'                     A'
 Frequencies --   1385.6816              3449.7570              3500.7378
 Red. masses --      1.0837                 1.0442                 1.0874
 Frc consts  --      1.2260                 7.3217                 7.8513
 IR Inten    --    166.5517               189.0537               566.1948
  Atom  AN      X      Y      Z        X      Y      Z        X      Y      Z
     1   8    -0.00  -0.07  -0.00    -0.00   0.05   0.00    -0.07  -0.00  -0.00
     2   1     0.42   0.56   0.00     0.59  -0.39   0.00     0.58  -0.40   0.00
     3   1    -0.42   0.56  -0.00    -0.59  -0.39  -0.00     0.58   0.40   0.00

 -------------------
 - Thermochemistry -
 -------------------
 Temperature   298.150 Kelvin.  Pressure   1.00000 Atm.
 Atom     1 has atomic number  8 and mass  15.99491
 Atom     2 has atomic number  1 and mass   1.00783
 Atom     3 has atomic number  1 and mass   1.00783
 Molecular mass:    18.01056 amu.
 Principal axes and moments of inertia in atomic units:
                           1         2         3
     Eigenvalues --     2.11459   4.87588   6.99047
           X            1.00000   0.00002   0.00000
           Y           -0.00002   1.00000   0.00000
           Z            0.00000  -0.00000   1.00000
 This molecule is an asymmetric top.
 Rotational symmetry number  1.
 Rotational temperatures (Kelvin)     40.96014    17.76375    12.39028
 Rotational constants (GHZ):         853.47072   370.13649   258.17162
 Zero-point vibrational energy      49861.4 (Joules/Mol)
                                   11.91716 (Kcal/Mol)
 Vibrational temperatures:   1993.69  4963.43  5036.78
          (Kelvin)
 
 Zero-point correction=                           0.018991 (Hartree/Particle)
 Thermal correction to Energy=                    0.021832
 Thermal correction to Enthalpy=                  0.022776
 Thermal correction to Gibbs Free Energy=        -0.000058
 Sum of electronic and zero-point Energies=            -75.855342
 Sum of electronic and thermal Energies=               -75.852501
 Sum of electronic and thermal Enthalpies=             -75.851557
 Sum of electronic and thermal Free Energies=          -75.874391
 
                     E (Thermal)             CV                S
                      KCal/Mol        Cal/Mol-Kelvin    Cal/Mol-Kelvin
 Total                   13.700              6.073             48.058
 Electronic               0.000              0.000              1.377
 Translational            0.889              2.981             34.608
 Rotational               0.889              2.981             12.053
 Vibrational             11.922              0.111              0.019
                       Q            Log10(Q)             Ln(Q)
 Total Bot       0.106344D+01          0.026714          0.061512
 Total V=0       0.578170D+09          8.762055         20.175378
 Vib (Bot)       0.184162D-08         -8.734799        -20.112618
 Vib (V=0)       0.100125D+01          0.000542          0.001248
 Electronic      0.200000D+01          0.301030          0.693147
 Translational   0.300431D+07          6.477745         14.915559
 Rotational      0.961033D+02          1.982738          4.565424
 
                                                                H2 O1
                                                             IR Spectrum
 
     3 3                                                                          1                                                  
     5 4                                                                          3                                                  
     0 5                                                                          8                                                  
     1 0                                                                          6                                                  
 
     X X                                                                          X                                                  
     X X                                                                          X                                                  
     X X                                                                          X                                                  
     X X                                                                          X                                                  
     X X                                                                          X                                                  
     X X                                                                          X                                                  
     X X                                                                                                                             
     X                                                                                                                               
     X                                                                                                                               
     X                                                                                                                               
     X                                                                                                                               
     X                                                                                                                               
     X                                                                                                                               
     X                                                                                                                               
     X                                                                                                                               
     X                                                                                                                               
     X                                                                                                                               
     X                                                                                                                               
     X                                                                                                                               
     X                                                                                                                               
 
 ***** Axes restored to original set *****
 -------------------------------------------------------------------
 Center     Atomic                   Forces (Hartrees/Bohr)
 Number     Number              X              Y              Z
 -------------------------------------------------------------------
      1        8          -0.000006052   -0.000371174   -0.000000000
      2        1           0.000140604    0.000187916    0.000000000
      3        1          -0.000134552    0.000183259   -0.000000000
 -------------------------------------------------------------------
 Cartesian Forces:  Max     0.000371174 RMS     0.000164849
 Force constants in Cartesian coordinates: 
                1             2             3             4             5 
      1  0.579226D+00
      2  0.165665D-03  0.354685D+00
      3  0.000000D+00  0.000000D+00  0.345815D-03
      4 -0.289306D+00 -0.169045D+00  0.000000D+00  0.308216D+00
      5 -0.202341D+00 -0.177638D+00  0.000000D+00  0.185723D+00  0.159669D+00
      6  0.000000D+00  0.000000D+00 -0.174949D-03  0.000000D+00  0.000000D+00
      7 -0.289920D+00  0.168880D+00  0.000000D+00 -0.189108D-01  0.166181D-01
      8  0.202175D+00 -0.177048D+00  0.000000D+00 -0.166775D-01  0.179690D-01
      9  0.000000D+00  0.000000D+00 -0.170867D-03  0.000000D+00  0.000000D+00
                6             7             8             9 
      6  0.117027D-03
      7  0.000000D+00  0.308831D+00
      8  0.000000D+00 -0.185498D+00  0.159079D+00
      9  0.579215D-04  0.000000D+00  0.000000D+00  0.112945D-03
 FormGI is forming the generalized inverse of G from B-inverse, IUseBI=4.
 Force constants in internal coordinates: 
                1             2             3 
      1  0.433875D+00
      2  0.296337D-02  0.433903D+00
      3  0.117138D-01  0.117137D-01  0.122067D+00
 Leave Link  716 at Mon Aug 15 15:11:24 2022, MaxMem=  6442450944 cpu:               0.2 elap:               0.0
 (Enter /mnt/gpfs3_amd/share/apps/amd/gaussian/g16-A.03/g16/l103.exe)

 GradGradGradGradGradGradGradGradGradGradGradGradGradGradGradGradGradGrad
 Berny optimization.
 Red2BG is reusing G-inverse.
 Internal  Forces:  Max     0.000222950 RMS     0.000196105
 Search for a local minimum.
 Step number   1 out of a maximum of    2
 All quantities printed in internal units (Hartrees-Bohrs-Radians)
 Second derivative matrix not updated -- analytic derivatives used.
 The second derivative matrix:
                          R1        R2        A1
           R1           0.43388
           R2           0.00296   0.43390
           A1           0.01171   0.01171   0.12207
 ITU=  0
     Eigenvalues ---    0.12120   0.43093   0.43772
 Angle between quadratic step and forces=  34.49 degrees.
 Linear search not attempted -- first point.
 Iteration  1 RMS(Cart)=  0.00063019 RMS(Int)=  0.00000036
 Iteration  2 RMS(Cart)=  0.00000040 RMS(Int)=  0.00000000
 ITry= 1 IFail=0 DXMaxC= 8.48D-04 DCOld= 1.00D+10 DXMaxT= 3.00D-01 DXLimC= 3.00D+00 Rises=F
 ClnCor:  largest displacement from symmetrization is 4.97D-16 for atom     2.
 Variable       Old X    -DE/DX   Delta X   Delta X   Delta X     New X
                                 (Linear)    (Quad)   (Total)
    R1        1.89746  -0.00022   0.00000  -0.00054  -0.00054   1.89691
    R2        1.89744  -0.00022   0.00000  -0.00053  -0.00053   1.89691
    A1        1.92174   0.00014   0.00000   0.00124   0.00124   1.92298
         Item               Value     Threshold  Converged?
 Maximum Force            0.000223     0.000450     YES
 RMS     Force            0.000196     0.000300     YES
 Maximum Displacement     0.000848     0.001800     YES
 RMS     Displacement     0.000630     0.001200     YES
 Predicted change in Energy=-2.036046D-07
 Optimization completed.
    -- Stationary point found.
                           ----------------------------
                           !   Optimized Parameters   !
                           ! (Angstroms and Degrees)  !
 --------------------------                            --------------------------
 ! Name  Definition              Value          Derivative Info.                !
 --------------------------------------------------------------------------------
 ! R1    R(1,2)                  1.0041         -DE/DX =   -0.0002              !
 ! R2    R(1,3)                  1.0041         -DE/DX =   -0.0002              !
 ! A1    A(2,1,3)              110.1075         -DE/DX =    0.0001              !
 --------------------------------------------------------------------------------
 GradGradGradGradGradGradGradGradGradGradGradGradGradGradGradGradGradGrad

 Leave Link  103 at Mon Aug 15 15:11:24 2022, MaxMem=  6442450944 cpu:               0.1 elap:               0.0
 (Enter /mnt/gpfs3_amd/share/apps/amd/gaussian/g16-A.03/g16/l9999.exe)

 ----------------------------------------------------------------------

 Electric dipole moment (input orientation):
 (Debye = 10**-18 statcoulomb cm , SI units = C m)
                  (au)            (Debye)         (10**-30 SI)
   Tot        0.893077D+00      0.226997D+01      0.757182D+01
   x          0.709507D-03      0.180339D-02      0.601545D-02
   y         -0.893076D+00     -0.226997D+01     -0.757182D+01
   z          0.000000D+00      0.000000D+00      0.000000D+00

 Dipole polarizability, Alpha (input orientation).
 (esu units = cm**3 , SI units = C**2 m**2 J**-1)
 Alpha(0;0):
               (au)            (10**-24 esu)      (10**-40 SI)
   iso        0.393376D+01      0.582923D+00      0.648589D+00
   aniso      0.211111D+01      0.312835D+00      0.348075D+00
   xx         0.528966D+01      0.783846D+00      0.872146D+00
   yx         0.140313D-02      0.207923D-03      0.231345D-03
   yy         0.358254D+01      0.530878D+00      0.590682D+00
   zx         0.000000D+00      0.000000D+00      0.000000D+00
   zy         0.000000D+00      0.000000D+00      0.000000D+00
   zz         0.292908D+01      0.434045D+00      0.482940D+00

 ----------------------------------------------------------------------

 Dipole orientation:
     8         -0.00000193         -0.00000000         -0.72458177
     1         -1.55531565         -0.00123562          0.36230978
     1          1.55531758          0.00123563          0.36227011

 Electric dipole moment (dipole orientation):
 (Debye = 10**-18 statcoulomb cm , SI units = C m)
                  (au)            (Debye)         (10**-30 SI)
   Tot        0.893077D+00      0.226997D+01      0.757182D+01
   x          0.000000D+00      0.000000D+00      0.000000D+00
   y          0.000000D+00      0.000000D+00      0.000000D+00
   z          0.893077D+00      0.226997D+01      0.757182D+01

 Dipole polarizability, Alpha (dipole orientation).
 (esu units = cm**3 , SI units = C**2 m**2 J**-1)
 Alpha(0;0):
               (au)            (10**-24 esu)      (10**-40 SI)
   iso        0.393376D+01      0.582923D+00      0.648589D+00
   aniso      0.211111D+01      0.312835D+00      0.348075D+00
   xx         0.528966D+01      0.783846D+00      0.872146D+00
   yx         0.187537D-02      0.277901D-03      0.309206D-03
   yy         0.292908D+01      0.434045D+00      0.482940D+00
   zx        -0.469106D-04     -0.695143D-05     -0.773451D-05
   zy         0.000000D+00      0.000000D+00      0.000000D+00
   zz         0.358254D+01      0.530878D+00      0.590681D+00

 ----------------------------------------------------------------------

 Test job not archived.
 1\1\GINC-ROME102\Freq\ULC-wHPBE\def2SVP\H2O1(1+,2)\RDU230\15-Aug-2022\
 0\\#P LC-wHPBE/Def2SVP Geom=AllCheck Guess=TCheck SCRF=Check freq iop(
 3/107=0499400000, 3/108=0499400000)\\H2 O1\\1,2\O,-0.0003056397,0.3834
 320402,0.\H,-0.8228852783,-0.1923798816,0.\H,0.823190918,-0.1910511586
 ,0.\\Version=AM64L-G16RevA.03\State=2-A"\HF=-75.874333\S2=0.752468\S2-
 1=0.\S2A=0.750004\RMSD=5.084e-10\RMSF=1.648e-04\ZeroPoint=0.0189912\Th
 ermal=0.0218316\Dipole=0.0007095,-0.8930765,0.\DipoleDeriv=-0.2386751,
 -0.0002724,0.,-0.0002685,0.0965812,0.,0.,0.,-0.0216157,0.6192101,0.086
 4765,0.,0.0759543,0.4518421,0.,0.,0.,0.5108086,0.619465,-0.0862041,0.,
 -0.0756858,0.4515767,0.,0.,0.,0.5108071\Polar=5.2896558,0.0014031,3.58
 25433,0.,0.,2.929078\Quadrupole=1.4729866,-0.6190922,-0.8538944,0.0016
 998,0.,0.\PG=CS [SG(H2O1)]\NImag=0\\0.57922581,0.00016567,0.35468514,0
 .,0.,0.00034582,-0.28930567,-0.16904531,0.,0.30821650,-0.20234089,-0.1
 7763757,0.,0.18572281,0.15966859,0.,0.,-0.00017495,0.,0.,0.00011703,-0
 .28992014,0.16887965,0.,-0.01891083,0.01661808,0.,0.30883097,0.2021752
 2,-0.17704757,0.,-0.01667750,0.01796898,0.,-0.18549773,0.15907859,0.,0
 .,-0.00017087,0.,0.,0.00005792,0.,0.,0.00011295\\0.00000605,0.00037117
 ,0.,-0.00014060,-0.00018792,0.,0.00013455,-0.00018326,0.\\\@


 WHEN HAVING A MEETING OF THE MINDS,
 MAKE SURE YOU HAVE THE EQUIPMENT FOR IT.
 Job cpu time:       0 days  0 hours  0 minutes 43.4 seconds.
 Elapsed time:       0 days  0 hours  0 minutes  2.9 seconds.
 File lengths (MBytes):  RWF=    136 Int=      0 D2E=      0 Chk=     16 Scr=     16
 Normal termination of Gaussian 16 at Mon Aug 15 15:11:24 2022.
