 Entering Gaussian System, Link 0=/mnt/gpfs3_amd/share/apps/amd/gaussian/g16-A.03/g16/g16
 Input=/scratch/rdu230/d3tales/high_throughput/runfiles//05XICU/gaussian/gas_phase/opt/opt_cation2.com
 Output=/scratch/rdu230/d3tales/high_throughput/runfiles//05XICU/gaussian/gas_phase/opt/opt_cation2.log
 Initial command:
 /mnt/gpfs3_amd/share/apps/amd/gaussian/g16-A.03/g16/l1.exe "/scratch/rdu230/d3tales/high_throughput/runfiles/05XICU/gaussian/gas_phase/opt/Gau-3729342.inp" -scrdir="/scratch/rdu230/d3tales/high_throughput/runfiles/05XICU/gaussian/gas_phase/opt/"
 Entering Link 1 = /mnt/gpfs3_amd/share/apps/amd/gaussian/g16-A.03/g16/l1.exe PID=   3729343.
  
 Copyright (c) 1988,1990,1992,1993,1995,1998,2003,2009,2016,
            Gaussian, Inc.  All Rights Reserved.
  
 This is part of the Gaussian(R) 16 program.  It is based on
 the Gaussian(R) 09 system (copyright 2009, Gaussian, Inc.),
 the Gaussian(R) 03 system (copyright 2003, Gaussian, Inc.),
 the Gaussian(R) 98 system (copyright 1998, Gaussian, Inc.),
 the Gaussian(R) 94 system (copyright 1995, Gaussian, Inc.),
 the Gaussian 92(TM) system (copyright 1992, Gaussian, Inc.),
 the Gaussian 90(TM) system (copyright 1990, Gaussian, Inc.),
 the Gaussian 88(TM) system (copyright 1988, Gaussian, Inc.),
 the Gaussian 86(TM) system (copyright 1986, Carnegie Mellon
 University), and the Gaussian 82(TM) system (copyright 1983,
 Carnegie Mellon University). Gaussian is a federally registered
 trademark of Gaussian, Inc.
  
 This software contains proprietary and confidential information,
 including trade secrets, belonging to Gaussian, Inc.
  
 This software is provided under written license and may be
 used, copied, transmitted, or stored only in accord with that
 written license.
  
 The following legend is applicable only to US Government
 contracts under FAR:
  
                    RESTRICTED RIGHTS LEGEND
  
 Use, reproduction and disclosure by the US Government is
 subject to restrictions as set forth in subparagraphs (a)
 and (c) of the Commercial Computer Software - Restricted
 Rights clause in FAR 52.227-19.
  
 Gaussian, Inc.
 340 Quinnipiac St., Bldg. 40, Wallingford CT 06492
  
  
 ---------------------------------------------------------------
 Warning -- This program may not be used in any manner that
 competes with the business of Gaussian, Inc. or will provide
 assistance to any competitor of Gaussian, Inc.  The licensee
 of this program is prohibited from giving any competitor of
 Gaussian, Inc. access to this program.  By using this program,
 the user acknowledges that Gaussian, Inc. is engaged in the
 business of creating and licensing software in the field of
 computational chemistry and represents and warrants to the
 licensee that it is not a competitor of Gaussian, Inc. and that
 it will not use this program in any manner prohibited above.
 ---------------------------------------------------------------
  

 Cite this work as:
 Gaussian 16, Revision A.03,
 M. J. Frisch, G. W. Trucks, H. B. Schlegel, G. E. Scuseria, 
 M. A. Robb, J. R. Cheeseman, G. Scalmani, V. Barone, 
 G. A. Petersson, H. Nakatsuji, X. Li, M. Caricato, A. V. Marenich, 
 J. Bloino, B. G. Janesko, R. Gomperts, B. Mennucci, H. P. Hratchian, 
 J. V. Ortiz, A. F. Izmaylov, J. L. Sonnenberg, D. Williams-Young, 
 F. Ding, F. Lipparini, F. Egidi, J. Goings, B. Peng, A. Petrone, 
 T. Henderson, D. Ranasinghe, V. G. Zakrzewski, J. Gao, N. Rega, 
 G. Zheng, W. Liang, M. Hada, M. Ehara, K. Toyota, R. Fukuda, 
 J. Hasegawa, M. Ishida, T. Nakajima, Y. Honda, O. Kitao, H. Nakai, 
 T. Vreven, K. Throssell, J. A. Montgomery, Jr., J. E. Peralta, 
 F. Ogliaro, M. J. Bearpark, J. J. Heyd, E. N. Brothers, K. N. Kudin, 
 V. N. Staroverov, T. A. Keith, R. Kobayashi, J. Normand, 
 K. Raghavachari, A. P. Rendell, J. C. Burant, S. S. Iyengar, 
 J. Tomasi, M. Cossi, J. M. Millam, M. Klene, C. Adamo, R. Cammi, 
 J. W. Ochterski, R. L. Martin, K. Morokuma, O. Farkas, 
 J. B. Foresman, and D. J. Fox, Gaussian, Inc., Wallingford CT, 2016.
 
 ******************************************
 Gaussian 16:  AM64L-G16RevA.03 25-Dec-2016
                10-Aug-2022 
 ******************************************
 %chk=/scratch/rdu230/d3tales/high_throughput/runfiles//05XICU/gaussian/gas_phase
 /opt/opt_cation2.chk
 %mem=48GB
 %nprocshared=16
 Will use up to   16 processors via shared memory.
 ----------------------------------------------------------------------
 #P LC-wHPBE/Def2SVP iop(3/107=0499400000, 3/108=0499400000) opt scf(ma
 xcyc=512)
 ----------------------------------------------------------------------
 1/18=20,19=15,26=3,38=1/1,3;
 2/9=110,12=2,17=6,18=5,40=1/2;
 3/5=43,7=101,11=2,25=1,30=1,71=1,74=-71,107=499400000,108=499400000/1,2,3;
 4//1;
 5/5=2,7=512,38=5/2;
 6/7=2,8=2,9=2,10=2,28=1/1;
 7//1,2,3,16;
 1/18=20,19=15,26=3/3(2);
 2/9=110/2;
 99//99;
 2/9=110/2;
 3/5=43,7=101,11=2,25=1,30=1,71=1,74=-71,107=499400000,108=499400000/1,2,3;
 4/5=5,16=3,69=1/1;
 5/5=2,7=512,38=5/2;
 7//1,2,3,16;
 1/18=20,19=15,26=3/3(-5);
 2/9=110/2;
 6/7=2,8=2,9=2,10=2,19=2,28=1/1;
 99/9=1/99;
 Leave Link    1 at Wed Aug 10 17:03:55 2022, MaxMem=  6442450944 cpu:              26.1 elap:               1.8
 (Enter /mnt/gpfs3_amd/share/apps/amd/gaussian/g16-A.03/g16/l101.exe)
 -----
 H2 O1
 -----
 Symbolic Z-matrix:
 Charge =  2 Multiplicity = 1
 O                    -0.00095   0.40154   0. 
 H                    -0.78985  -0.20119   0. 
 H                     0.7908   -0.20035   0. 
 
 ITRead=  0  0  0
 MicOpt= -1 -1 -1
 NAtoms=      3 NQM=        3 NQMF=       0 NMMI=      0 NMMIF=      0
                NMic=       0 NMicF=      0.
                    Isotopes and Nuclear Properties:
 (Nuclear quadrupole moments (NQMom) in fm**2, nuclear magnetic moments (NMagM)
  in nuclear magnetons)

  Atom         1           2           3
 IAtWgt=          16           1           1
 AtmWgt=  15.9949146   1.0078250   1.0078250
 NucSpn=           0           1           1
 AtZEff=  -0.0000000  -0.0000000  -0.0000000
 NQMom=    0.0000000   0.0000000   0.0000000
 NMagM=    0.0000000   2.7928460   2.7928460
 AtZNuc=   8.0000000   1.0000000   1.0000000
 Leave Link  101 at Wed Aug 10 17:03:55 2022, MaxMem=  6442450944 cpu:               2.4 elap:               0.2
 (Enter /mnt/gpfs3_amd/share/apps/amd/gaussian/g16-A.03/g16/l103.exe)

 GradGradGradGradGradGradGradGradGradGradGradGradGradGradGradGradGradGrad
 Berny optimization.
 Initialization pass.
                           ----------------------------
                           !    Initial Parameters    !
                           ! (Angstroms and Degrees)  !
 --------------------------                            --------------------------
 ! Name  Definition              Value          Derivative Info.                !
 --------------------------------------------------------------------------------
 ! R1    R(1,2)                  0.9928         estimate D2E/DX2                !
 ! R2    R(1,3)                  0.9946         estimate D2E/DX2                !
 ! A1    A(2,1,3)              105.3777         estimate D2E/DX2                !
 --------------------------------------------------------------------------------
 Trust Radius=3.00D-01 FncErr=1.00D-07 GrdErr=1.00D-06 EigMax=2.50D+02 EigMin=1.00D-04
 Number of steps in this run=     20 maximum allowed number of steps=    100.
 GradGradGradGradGradGradGradGradGradGradGradGradGradGradGradGradGradGrad

 Leave Link  103 at Wed Aug 10 17:03:55 2022, MaxMem=  6442450944 cpu:               0.1 elap:               0.0
 (Enter /mnt/gpfs3_amd/share/apps/amd/gaussian/g16-A.03/g16/l202.exe)
                          Input orientation:                          
 ---------------------------------------------------------------------
 Center     Atomic      Atomic             Coordinates (Angstroms)
 Number     Number       Type             X           Y           Z
 ---------------------------------------------------------------------
      1          8           0       -0.000945    0.401540    0.000000
      2          1           0       -0.789854   -0.201188    0.000000
      3          1           0        0.790799   -0.200351    0.000000
 ---------------------------------------------------------------------
                    Distance matrix (angstroms):
                    1          2          3
     1  O    0.000000
     2  H    0.992803   0.000000
     3  H    0.994551   1.580653   0.000000
 Stoichiometry    H2O(2+)
 Framework group  CS[SG(H2O)]
 Deg. of freedom     3
 Full point group                 CS      NOp   2
 Largest Abelian subgroup         CS      NOp   2
 Largest concise Abelian subgroup C1      NOp   1
                         Standard orientation:                         
 ---------------------------------------------------------------------
 Center     Atomic      Atomic             Coordinates (Angstroms)
 Number     Number       Type             X           Y           Z
 ---------------------------------------------------------------------
      1          8           0        0.000000    0.120462    0.000000
      2          1           0        0.790325   -0.480407    0.000000
      3          1           0       -0.790325   -0.483290   -0.000000
 ---------------------------------------------------------------------
 Rotational constants (GHZ):         778.2311609         401.4091903         264.8172724
 Leave Link  202 at Wed Aug 10 17:03:56 2022, MaxMem=  6442450944 cpu:               0.0 elap:               0.0
 (Enter /mnt/gpfs3_amd/share/apps/amd/gaussian/g16-A.03/g16/l301.exe)
 Standard basis: def2SVP (5D, 7F)
 Ernie: Thresh=  0.10000D-02 Tol=  0.10000D-05 Strict=F.
 There are    19 symmetry adapted cartesian basis functions of A'  symmetry.
 There are     6 symmetry adapted cartesian basis functions of A"  symmetry.
 There are    18 symmetry adapted basis functions of A'  symmetry.
 There are     6 symmetry adapted basis functions of A"  symmetry.
    24 basis functions,    39 primitive gaussians,    25 cartesian basis functions
     4 alpha electrons        4 beta electrons
       nuclear repulsion energy         8.8555016470 Hartrees.
 IExCor=33909 DFT=T Ex+Corr=LC-wHPBE ExCW=0 ScaHFX=  1.000000
 ScaDFX=  1.000000  1.000000  1.000000  1.000000 ScalE2=  1.000000  1.000000
 IRadAn=      5 IRanWt=     -1 IRanGd=            0 ICorTp=0 IEmpDi=  4
 HFx  wShort=  0.000000 wLong=  0.499400 cFull=  0.000000 cShort=  0.000000 cLong=  1.000000
 DFx  wShort=  0.000000 wLong=  0.499400 cFull=  0.000000 cShort=  1.000000 cLong=  0.000000
 NAtoms=    3 NActive=    3 NUniq=    3 SFac= 1.00D+00 NAtFMM=   60 NAOKFM=F Big=F
 Integral buffers will be    131072 words long.
 Raffenetti 2 integral format.
 Two-electron integral symmetry is turned on.
 Leave Link  301 at Wed Aug 10 17:03:56 2022, MaxMem=  6442450944 cpu:               0.3 elap:               0.0
 (Enter /mnt/gpfs3_amd/share/apps/amd/gaussian/g16-A.03/g16/l302.exe)
 NPDir=0 NMtPBC=     1 NCelOv=     1 NCel=       1 NClECP=     1 NCelD=      1
         NCelK=      1 NCelE2=     1 NClLst=     1 CellRange=     0.0.
 One-electron integrals computed using PRISM.
 One-electron integral symmetry used in STVInt
   2 Symmetry operations used in ECPInt.
 ECPInt:  NShTT=      78 NPrTT=     272 LenC2=      79 LenP2D=     271.
 LDataN:  DoStor=T MaxTD1= 4 Len=   56
 NBasis=    24 RedAO= T EigKep=  4.06D-02  NBF=    18     6
 NBsUse=    24 1.00D-06 EigRej= -1.00D+00 NBFU=    18     6
 Precomputing XC quadrature grid using
 IXCGrd= 4 IRadAn=           5 IRanWt=          -1 IRanGd=           0 AccXCQ= 0.00D+00.
 Generated NRdTot=       0 NPtTot=           0 NUsed=           0 NTot=          32
 NSgBfM=    25    25    25    25    25 MxSgAt=     3 MxSgA2=     3.
 Leave Link  302 at Wed Aug 10 17:03:56 2022, MaxMem=  6442450944 cpu:               2.8 elap:               0.2
 (Enter /mnt/gpfs3_amd/share/apps/amd/gaussian/g16-A.03/g16/l303.exe)
 DipDrv:  MaxL=1.
 Leave Link  303 at Wed Aug 10 17:03:56 2022, MaxMem=  6442450944 cpu:               0.1 elap:               0.0
 (Enter /mnt/gpfs3_amd/share/apps/amd/gaussian/g16-A.03/g16/l401.exe)
 ExpMin= 1.22D-01 ExpMax= 2.27D+03 ExpMxC= 3.41D+02 IAcc=3 IRadAn=         5 AccDes= 0.00D+00
 Harris functional with IExCor=33909 and IRadAn=       5 diagonalized for initial guess.
 HarFok:  IExCor=33909 AccDes= 0.00D+00 IRadAn=         5 IDoV= 1 UseB2=F ITyADJ=14
 ICtDFT=  3500011 ScaDFX=  1.000000  1.000000  1.000000  1.000000
 FoFCou: FMM=F IPFlag=           0 FMFlag=      100000 FMFlg1=           0
         NFxFlg=           0 DoJE=T BraDBF=F KetDBF=T FulRan=T
         wScrn=  0.000000 ICntrl=       500 IOpCl=  0 I1Cent=   200000004 NGrid=           0
         NMat0=    1 NMatS0=      1 NMatT0=    0 NMatD0=    1 NMtDS0=    0 NMtDT0=    0
 Petite list used in FoFCou.
 Harris En= -73.6285460693290    
 JPrj=0 DoOrth=F DoCkMO=F.
 Initial guess orbital symmetries:
       Occupied  (A') (A') (A') (A')
       Virtual   (A") (A') (A') (A') (A') (A') (A") (A') (A') (A")
                 (A') (A") (A') (A') (A') (A") (A") (A') (A') (A')
 The electronic state of the initial guess is 1-A'.
 Leave Link  401 at Wed Aug 10 17:03:56 2022, MaxMem=  6442450944 cpu:               3.6 elap:               0.3
 (Enter /mnt/gpfs3_amd/share/apps/amd/gaussian/g16-A.03/g16/l502.exe)
 Keep R1 ints in memory in symmetry-blocked form, NReq=13884302.
 FoFCou: FMM=F IPFlag=           0 FMFlag=           0 FMFlg1=           0
         NFxFlg=           0 DoJE=F BraDBF=F KetDBF=F FulRan=T
         wScrn=  0.000000 ICntrl=       600 IOpCl=  0 I1Cent=           0 NGrid=           0
         NMat0=    1 NMatS0=    300 NMatT0=    0 NMatD0=    1 NMtDS0=    0 NMtDT0=    0
 Petite list used in FoFCou.
 Closed shell SCF:
 Using DIIS extrapolation, IDIIS=  1040.
 NGot=  6442450944 LenX=  6442423464 LenY=  6442422398
 Requested convergence on RMS density matrix=1.00D-08 within 512 cycles.
 Requested convergence on MAX density matrix=1.00D-06.
 Requested convergence on             energy=1.00D-06.
 No special actions if energy rises.
 Integral accuracy reduced to 1.0D-05 until final iterations.

 Cycle   1  Pass 0  IDiag  1:
 E= -74.5801709454554    
 DIIS: error= 1.08D-01 at cycle   1 NSaved=   1.
 NSaved= 1 IEnMin= 1 EnMin= -74.5801709454554     IErMin= 1 ErrMin= 1.08D-01
 ErrMax= 1.08D-01  0.00D+00 EMaxC= 1.00D-01 BMatC= 2.48D-01 BMatP= 2.48D-01
 IDIUse=3 WtCom= 0.00D+00 WtEn= 1.00D+00
 Coeff-Com:  0.100D+01
 Coeff-En:   0.100D+01
 Coeff:      0.100D+01
 Gap=     0.409 Goal=   None    Shift=    0.000
 GapD=    0.409 DampG=2.000 DampE=0.250 DampFc=0.5000 IDamp=-1.
 Damping current iteration by 5.00D-01
 RMSDP=2.07D-02 MaxDP=2.27D-01              OVMax= 2.10D-01

 Cycle   2  Pass 0  IDiag  1:
 E= -74.7008138206324     Delta-E=       -0.120642875177 Rises=F Damp=T
 DIIS: error= 3.96D-02 at cycle   2 NSaved=   2.
 NSaved= 2 IEnMin= 2 EnMin= -74.7008138206324     IErMin= 2 ErrMin= 3.96D-02
 ErrMax= 3.96D-02  0.00D+00 EMaxC= 1.00D-01 BMatC= 2.40D-02 BMatP= 2.48D-01
 IDIUse=3 WtCom= 6.04D-01 WtEn= 3.96D-01
 Coeff-Com: -0.375D+00 0.137D+01
 Coeff-En:   0.000D+00 0.100D+01
 Coeff:     -0.226D+00 0.123D+01
 Gap=     0.444 Goal=   None    Shift=    0.000
 RMSDP=6.18D-03 MaxDP=4.72D-02 DE=-1.21D-01 OVMax= 5.24D-02

 Cycle   3  Pass 0  IDiag  1:
 E= -74.7980553216469     Delta-E=       -0.097241501014 Rises=F Damp=F
 DIIS: error= 8.01D-03 at cycle   3 NSaved=   3.
 NSaved= 3 IEnMin= 3 EnMin= -74.7980553216469     IErMin= 3 ErrMin= 8.01D-03
 ErrMax= 8.01D-03  0.00D+00 EMaxC= 1.00D-01 BMatC= 1.18D-03 BMatP= 2.40D-02
 IDIUse=3 WtCom= 9.20D-01 WtEn= 8.01D-02
 Coeff-Com:  0.216D+00-0.528D+00 0.131D+01
 Coeff-En:   0.000D+00 0.000D+00 0.100D+01
 Coeff:      0.199D+00-0.486D+00 0.129D+01
 Gap=     0.447 Goal=   None    Shift=    0.000
 RMSDP=1.30D-03 MaxDP=1.41D-02 DE=-9.72D-02 OVMax= 8.94D-03

 Cycle   4  Pass 0  IDiag  1:
 E= -74.7988847472405     Delta-E=       -0.000829425594 Rises=F Damp=F
 DIIS: error= 6.24D-04 at cycle   4 NSaved=   4.
 NSaved= 4 IEnMin= 4 EnMin= -74.7988847472405     IErMin= 4 ErrMin= 6.24D-04
 ErrMax= 6.24D-04  0.00D+00 EMaxC= 1.00D-01 BMatC= 7.82D-06 BMatP= 1.18D-03
 IDIUse=3 WtCom= 9.94D-01 WtEn= 6.24D-03
 Coeff-Com: -0.741D-03-0.661D-02 0.463D-01 0.961D+00
 Coeff-En:   0.000D+00 0.000D+00 0.000D+00 0.100D+01
 Coeff:     -0.736D-03-0.657D-02 0.460D-01 0.961D+00
 Gap=     0.445 Goal=   None    Shift=    0.000
 RMSDP=8.33D-05 MaxDP=9.80D-04 DE=-8.29D-04 OVMax= 9.48D-04

 Cycle   5  Pass 0  IDiag  1:
 E= -74.7988915039461     Delta-E=       -0.000006756706 Rises=F Damp=F
 DIIS: error= 5.29D-05 at cycle   5 NSaved=   5.
 NSaved= 5 IEnMin= 5 EnMin= -74.7988915039461     IErMin= 5 ErrMin= 5.29D-05
 ErrMax= 5.29D-05  0.00D+00 EMaxC= 1.00D-01 BMatC= 3.94D-08 BMatP= 7.82D-06
 IDIUse=1 WtCom= 1.00D+00 WtEn= 0.00D+00
 Coeff-Com: -0.158D-02 0.523D-02-0.187D-01-0.180D+00 0.119D+01
 Coeff:     -0.158D-02 0.523D-02-0.187D-01-0.180D+00 0.119D+01
 Gap=     0.445 Goal=   None    Shift=    0.000
 RMSDP=1.30D-05 MaxDP=1.20D-04 DE=-6.76D-06 OVMax= 2.03D-04

 Cycle   6  Pass 0  IDiag  1:
 E= -74.7988915922828     Delta-E=       -0.000000088337 Rises=F Damp=F
 DIIS: error= 8.73D-06 at cycle   6 NSaved=   6.
 NSaved= 6 IEnMin= 6 EnMin= -74.7988915922828     IErMin= 6 ErrMin= 8.73D-06
 ErrMax= 8.73D-06  0.00D+00 EMaxC= 1.00D-01 BMatC= 2.19D-09 BMatP= 3.94D-08
 IDIUse=1 WtCom= 1.00D+00 WtEn= 0.00D+00
 Coeff-Com:  0.266D-03-0.710D-03 0.163D-02 0.224D-01-0.227D+00 0.120D+01
 Coeff:      0.266D-03-0.710D-03 0.163D-02 0.224D-01-0.227D+00 0.120D+01
 Gap=     0.445 Goal=   None    Shift=    0.000
 RMSDP=2.27D-06 MaxDP=3.18D-05 DE=-8.83D-08 OVMax= 2.78D-05

 Initial convergence to 1.0D-05 achieved.  Increase integral accuracy.
 Cycle   7  Pass 1  IDiag  1:
 E= -74.7988910641969     Delta-E=        0.000000528086 Rises=F Damp=F
 DIIS: error= 3.11D-06 at cycle   1 NSaved=   1.
 NSaved= 1 IEnMin= 1 EnMin= -74.7988910641969     IErMin= 1 ErrMin= 3.11D-06
 ErrMax= 3.11D-06  0.00D+00 EMaxC= 1.00D-01 BMatC= 1.57D-10 BMatP= 1.57D-10
 IDIUse=1 WtCom= 1.00D+00 WtEn= 0.00D+00
 Coeff-Com:  0.100D+01
 Coeff:      0.100D+01
 Gap=     0.445 Goal=   None    Shift=    0.000
 RMSDP=2.27D-06 MaxDP=3.18D-05 DE= 5.28D-07 OVMax= 4.70D-06

 Cycle   8  Pass 1  IDiag  1:
 E= -74.7988910643324     Delta-E=       -0.000000000136 Rises=F Damp=F
 DIIS: error= 5.60D-07 at cycle   2 NSaved=   2.
 NSaved= 2 IEnMin= 2 EnMin= -74.7988910643324     IErMin= 2 ErrMin= 5.60D-07
 ErrMax= 5.60D-07  0.00D+00 EMaxC= 1.00D-01 BMatC= 1.07D-11 BMatP= 1.57D-10
 IDIUse=1 WtCom= 1.00D+00 WtEn= 0.00D+00
 Coeff-Com:  0.484D-01 0.952D+00
 Coeff:      0.484D-01 0.952D+00
 Gap=     0.445 Goal=   None    Shift=    0.000
 RMSDP=1.49D-07 MaxDP=1.92D-06 DE=-1.36D-10 OVMax= 1.27D-06

 Cycle   9  Pass 1  IDiag  1:
 E= -74.7988910643422     Delta-E=       -0.000000000010 Rises=F Damp=F
 DIIS: error= 1.85D-07 at cycle   3 NSaved=   3.
 NSaved= 3 IEnMin= 3 EnMin= -74.7988910643422     IErMin= 3 ErrMin= 1.85D-07
 ErrMax= 1.85D-07  0.00D+00 EMaxC= 1.00D-01 BMatC= 1.29D-12 BMatP= 1.07D-11
 IDIUse=1 WtCom= 1.00D+00 WtEn= 0.00D+00
 Coeff-Com: -0.589D-01 0.178D+00 0.881D+00
 Coeff:     -0.589D-01 0.178D+00 0.881D+00
 Gap=     0.445 Goal=   None    Shift=    0.000
 RMSDP=3.89D-08 MaxDP=5.14D-07 DE=-9.76D-12 OVMax= 5.53D-07

 Cycle  10  Pass 1  IDiag  1:
 E= -74.7988910643434     Delta-E=       -0.000000000001 Rises=F Damp=F
 DIIS: error= 3.20D-08 at cycle   4 NSaved=   4.
 NSaved= 4 IEnMin= 4 EnMin= -74.7988910643434     IErMin= 4 ErrMin= 3.20D-08
 ErrMax= 3.20D-08  0.00D+00 EMaxC= 1.00D-01 BMatC= 1.76D-14 BMatP= 1.29D-12
 IDIUse=1 WtCom= 1.00D+00 WtEn= 0.00D+00
 Coeff-Com:  0.127D-01-0.663D-01-0.190D+00 0.124D+01
 Coeff:      0.127D-01-0.663D-01-0.190D+00 0.124D+01
 Gap=     0.445 Goal=   None    Shift=    0.000
 RMSDP=8.86D-09 MaxDP=6.90D-08 DE=-1.22D-12 OVMax= 1.31D-07

 SCF Done:  E(RLC-wHPBE) =  -74.7988910643     A.U. after   10 cycles
            NFock= 10  Conv=0.89D-08     -V/T= 2.0003
 KE= 7.477300557470D+01 PE=-1.865855719196D+02 EE= 2.815817363354D+01
 Leave Link  502 at Wed Aug 10 17:03:57 2022, MaxMem=  6442450944 cpu:               9.9 elap:               0.7
 (Enter /mnt/gpfs3_amd/share/apps/amd/gaussian/g16-A.03/g16/l601.exe)
 Copying SCF densities to generalized density rwf, IOpCl= 0 IROHF=0.

 **********************************************************************

            Population analysis using the SCF density.

 **********************************************************************

 Orbital symmetries:
       Occupied  (A') (A') (A') (A')
       Virtual   (A") (A') (A') (A') (A') (A") (A') (A') (A') (A")
                 (A') (A") (A') (A') (A') (A") (A") (A') (A') (A')
 The electronic state is 1-A'.
 Alpha  occ. eigenvalues --  -20.25805  -2.19962  -1.67909  -1.55258
 Alpha virt. eigenvalues --   -1.10715  -0.53026  -0.46869  -0.06639  -0.04644
 Alpha virt. eigenvalues --    0.14607   0.19546   0.32540   0.38039   0.61777
 Alpha virt. eigenvalues --    0.72143   0.83947   1.09258   1.41012   1.42577
 Alpha virt. eigenvalues --    2.02096   2.07029   2.28811   2.60863   2.94618
          Condensed to atoms (all electrons):
               1          2          3
     1  O    6.330282   0.295373   0.294676
     2  H    0.295373   0.242741   0.002586
     3  H    0.294676   0.002586   0.241707
 Mulliken charges:
               1
     1  O    1.079669
     2  H    0.459300
     3  H    0.461031
 Sum of Mulliken charges =   2.00000
 Mulliken charges with hydrogens summed into heavy atoms:
               1
     1  O    2.000000
 Electronic spatial extent (au):  <R**2>=             10.9321
 Charge=              2.0000 electrons
 Dipole moment (field-independent basis, Debye):
    X=             -0.0023    Y=             -2.4415    Z=             -0.0000  Tot=              2.4415
 Quadrupole moment (field-independent basis, Debye-Ang):
   XX=             -0.1487   YY=             -2.8238   ZZ=             -2.9432
   XY=              0.0089   XZ=              0.0000   YZ=              0.0000
 Traceless Quadrupole moment (field-independent basis, Debye-Ang):
   XX=              1.8232   YY=             -0.8519   ZZ=             -0.9713
   XY=              0.0089   XZ=              0.0000   YZ=              0.0000
 Octapole moment (field-independent basis, Debye-Ang**2):
  XXX=             -0.0019  YYY=             -1.6683  ZZZ=             -0.0000  XYY=             -0.0084
  XXY=             -2.3759  XXZ=             -0.0000  XZZ=              0.0002  YZZ=             -0.1597
  YYZ=             -0.0000  XYZ=             -0.0000
 Hexadecapole moment (field-independent basis, Debye-Ang**3):
 XXXX=             -0.5123 YYYY=             -2.8124 ZZZZ=             -1.1526 XXXY=              0.0053
 XXXZ=              0.0000 YYYX=              0.0056 YYYZ=              0.0000 ZZZX=             -0.0000
 ZZZY=             -0.0000 XXYY=              0.0239 XXZZ=             -0.7714 YYZZ=             -0.7154
 XXYZ=              0.0000 YYXZ=              0.0000 ZZXY=             -0.0003
 N-N= 8.855501647048D+00 E-N=-1.865855717640D+02  KE= 7.477300557470D+01
 Symmetry A'   KE= 7.477300557470D+01
 Symmetry A"   KE= 9.415981703340D-63
 No NMR shielding tensors so no spin-rotation constants.
 Leave Link  601 at Wed Aug 10 17:03:57 2022, MaxMem=  6442450944 cpu:               1.3 elap:               0.1
 (Enter /mnt/gpfs3_amd/share/apps/amd/gaussian/g16-A.03/g16/l701.exe)
 ... and contract with generalized density number  0.
 Compute integral first derivatives.
   2 Symmetry operations used in ECPInt.
 ECPInt:  NShTT=      78 NPrTT=     272 LenC2=      79 LenP2D=     271.
 LDataN:  DoStor=T MaxTD1= 5 Len=  102
 Leave Link  701 at Wed Aug 10 17:03:57 2022, MaxMem=  6442450944 cpu:               1.3 elap:               0.1
 (Enter /mnt/gpfs3_amd/share/apps/amd/gaussian/g16-A.03/g16/l702.exe)
 L702 exits ... SP integral derivatives will be done elsewhere.
 Leave Link  702 at Wed Aug 10 17:03:57 2022, MaxMem=  6442450944 cpu:               0.1 elap:               0.0
 (Enter /mnt/gpfs3_amd/share/apps/amd/gaussian/g16-A.03/g16/l703.exe)
 Integral derivatives from FoFJK, PRISM(SPDF).
 Compute integral first derivatives, UseDBF=F ICtDFT=           0.
 Calling FoFJK, ICntrl=      2127 FMM=F ISym2X=1 I1Cent= 0 IOpClX= 0 NMat=1 NMatS=1 NMatT=0.
 FoFJK:  IHMeth= 1 ICntrl=    2127 DoSepK=T KAlg= 0 I1Cent=           0 FoldK=F
 IRaf=         1 NMat=       1 IRICut=       1 DoRegI=T DoRafI=F ISym2E= 1 IDoP0=0 IntGTp=1.
 FoFCou: FMM=F IPFlag=           0 FMFlag=      100000 FMFlg1=         800
         NFxFlg=           0 DoJE=F BraDBF=F KetDBF=F FulRan=T
         wScrn=  0.000000 ICntrl=      2527 IOpCl=  0 I1Cent=           0 NGrid=           0
         NMat0=    1 NMatS0=      1 NMatT0=    0 NMatD0=    1 NMtDS0=    0 NMtDT0=    0
 Petite list used in FoFCou.
 Leave Link  703 at Wed Aug 10 17:03:57 2022, MaxMem=  6442450944 cpu:               5.0 elap:               0.3
 (Enter /mnt/gpfs3_amd/share/apps/amd/gaussian/g16-A.03/g16/l716.exe)
 Dipole        =-9.05887522D-04-9.60554313D-01-3.67570316D-35
 ***** Axes restored to original set *****
 -------------------------------------------------------------------
 Center     Atomic                   Forces (Hartrees/Bohr)
 Number     Number              X              Y              Z
 -------------------------------------------------------------------
      1        8           0.001056345    0.098189503   -0.000000000
      2        1          -0.092375442   -0.049633968    0.000000000
      3        1           0.091319098   -0.048555535   -0.000000000
 -------------------------------------------------------------------
 Cartesian Forces:  Max     0.098189503 RMS     0.059006464
 Leave Link  716 at Wed Aug 10 17:03:57 2022, MaxMem=  6442450944 cpu:               0.2 elap:               0.0
 (Enter /mnt/gpfs3_amd/share/apps/amd/gaussian/g16-A.03/g16/l103.exe)

 GradGradGradGradGradGradGradGradGradGradGradGradGradGradGradGradGradGrad
 Berny optimization.
 FormGI is forming the generalized inverse of G from B-inverse, IUseBI=4.
 Internal  Forces:  Max     0.103536718 RMS     0.085859169
 Search for a local minimum.
 Step number   1 out of a maximum of   20
 All quantities printed in internal units (Hartrees-Bohrs-Radians)
 RMS Force = .85859D-01 SwitMx=.10000D-02 MixMth= 1
 Mixed Optimization -- RFO/linear search
 Second derivative matrix not updated -- first step.
 The second derivative matrix:
                          R1        R2        A1
           R1           0.48976
           R2           0.00000   0.48659
           A1           0.00000   0.00000   0.16000
 ITU=  0
     Eigenvalues ---    0.16000   0.48659   0.48976
 RFO step:  Lambda=-4.44565780D-02 EMin= 1.60000000D-01
 Linear search not attempted -- first point.
 Maximum step size (   0.300) exceeded in Quadratic search.
    -- Step size scaled by   0.959
 Iteration  1 RMS(Cart)=  0.18828601 RMS(Int)=  0.00856142
 Iteration  2 RMS(Cart)=  0.00730201 RMS(Int)=  0.00004129
 Iteration  3 RMS(Cart)=  0.00004506 RMS(Int)=  0.00000000
 Iteration  4 RMS(Cart)=  0.00000000 RMS(Int)=  0.00000000
 ITry= 1 IFail=0 DXMaxC= 2.35D-01 DCOld= 1.00D+10 DXMaxT= 3.00D-01 DXLimC= 3.00D+00 Rises=F
 ClnCor:  largest displacement from symmetrization is 1.24D-15 for atom     2.
 Variable       Old X    -DE/DX   Delta X   Delta X   Delta X     New X
                                 (Linear)    (Quad)   (Total)
    R1        1.87613   0.10354   0.00000   0.18589   0.18589   2.06202
    R2        1.87943   0.10208   0.00000   0.18438   0.18438   2.06380
    A1        1.83919   0.03122   0.00000   0.14646   0.14646   1.98564
         Item               Value     Threshold  Converged?
 Maximum Force            0.103537     0.000450     NO 
 RMS     Force            0.085859     0.000300     NO 
 Maximum Displacement     0.234625     0.001800     NO 
 RMS     Displacement     0.191406     0.001200     NO 
 Predicted change in Energy=-2.419174D-02
 Lowest energy point so far.  Saving SCF results.
 GradGradGradGradGradGradGradGradGradGradGradGradGradGradGradGradGradGrad

 Leave Link  103 at Wed Aug 10 17:03:57 2022, MaxMem=  6442450944 cpu:               0.1 elap:               0.0
 (Enter /mnt/gpfs3_amd/share/apps/amd/gaussian/g16-A.03/g16/l202.exe)
                          Input orientation:                          
 ---------------------------------------------------------------------
 Center     Atomic      Atomic             Coordinates (Angstroms)
 Number     Number       Type             X           Y           Z
 ---------------------------------------------------------------------
      1          8           0       -0.000637    0.397598    0.000000
      2          1           0       -0.914012   -0.199399    0.000000
      3          1           0        0.914649   -0.198198   -0.000000
 ---------------------------------------------------------------------
                    Distance matrix (angstroms):
                    1          2          3
     1  O    0.000000
     2  H    1.091173   0.000000
     3  H    1.092118   1.828662   0.000000
 Stoichiometry    H2O(2+)
 Framework group  CS[SG(H2O)]
 Deg. of freedom     3
 Full point group                 CS      NOp   2
 RotChk:  IX=0 Diff= 1.06D-03
 Largest Abelian subgroup         CS      NOp   2
 Largest concise Abelian subgroup C1      NOp   1
                         Standard orientation:                         
 ---------------------------------------------------------------------
 Center     Atomic      Atomic             Coordinates (Angstroms)
 Number     Number       Type             X           Y           Z
 ---------------------------------------------------------------------
      1          8           0        0.000000    0.119279    0.000000
      2          1           0        0.914331   -0.476253    0.000000
      3          1           0       -0.914331   -0.477983    0.000000
 ---------------------------------------------------------------------
 Rotational constants (GHZ):         793.7378516         299.9127256         217.6674044
 Leave Link  202 at Wed Aug 10 17:03:57 2022, MaxMem=  6442450944 cpu:               0.0 elap:               0.0
 (Enter /mnt/gpfs3_amd/share/apps/amd/gaussian/g16-A.03/g16/l301.exe)
 Standard basis: def2SVP (5D, 7F)
 Ernie: Thresh=  0.10000D-02 Tol=  0.10000D-05 Strict=F.
 There are    19 symmetry adapted cartesian basis functions of A'  symmetry.
 There are     6 symmetry adapted cartesian basis functions of A"  symmetry.
 There are    18 symmetry adapted basis functions of A'  symmetry.
 There are     6 symmetry adapted basis functions of A"  symmetry.
    24 basis functions,    39 primitive gaussians,    25 cartesian basis functions
     4 alpha electrons        4 beta electrons
       nuclear repulsion energy         8.0454090620 Hartrees.
 IExCor=33909 DFT=T Ex+Corr=LC-wHPBE ExCW=0 ScaHFX=  1.000000
 ScaDFX=  1.000000  1.000000  1.000000  1.000000 ScalE2=  1.000000  1.000000
 IRadAn=      5 IRanWt=     -1 IRanGd=            0 ICorTp=0 IEmpDi=  4
 HFx  wShort=  0.000000 wLong=  0.499400 cFull=  0.000000 cShort=  0.000000 cLong=  1.000000
 DFx  wShort=  0.000000 wLong=  0.499400 cFull=  0.000000 cShort=  1.000000 cLong=  0.000000
 NAtoms=    3 NActive=    3 NUniq=    3 SFac= 1.00D+00 NAtFMM=   60 NAOKFM=F Big=F
 Integral buffers will be    131072 words long.
 Raffenetti 2 integral format.
 Two-electron integral symmetry is turned on.
 Leave Link  301 at Wed Aug 10 17:03:57 2022, MaxMem=  6442450944 cpu:               0.4 elap:               0.0
 (Enter /mnt/gpfs3_amd/share/apps/amd/gaussian/g16-A.03/g16/l302.exe)
 NPDir=0 NMtPBC=     1 NCelOv=     1 NCel=       1 NClECP=     1 NCelD=      1
         NCelK=      1 NCelE2=     1 NClLst=     1 CellRange=     0.0.
 One-electron integrals computed using PRISM.
 One-electron integral symmetry used in STVInt
   2 Symmetry operations used in ECPInt.
 ECPInt:  NShTT=      78 NPrTT=     272 LenC2=      79 LenP2D=     267.
 LDataN:  DoStor=T MaxTD1= 4 Len=   56
 NBasis=    24 RedAO= T EigKep=  5.19D-02  NBF=    18     6
 NBsUse=    24 1.00D-06 EigRej= -1.00D+00 NBFU=    18     6
 Precomputing XC quadrature grid using
 IXCGrd= 4 IRadAn=           5 IRanWt=          -1 IRanGd=           0 AccXCQ= 0.00D+00.
 Generated NRdTot=       0 NPtTot=           0 NUsed=           0 NTot=          32
 NSgBfM=    25    25    25    25    25 MxSgAt=     3 MxSgA2=     3.
 Leave Link  302 at Wed Aug 10 17:03:58 2022, MaxMem=  6442450944 cpu:               2.2 elap:               0.2
 (Enter /mnt/gpfs3_amd/share/apps/amd/gaussian/g16-A.03/g16/l303.exe)
 DipDrv:  MaxL=1.
 Leave Link  303 at Wed Aug 10 17:03:58 2022, MaxMem=  6442450944 cpu:               0.9 elap:               0.1
 (Enter /mnt/gpfs3_amd/share/apps/amd/gaussian/g16-A.03/g16/l401.exe)
 Initial guess from the checkpoint file:  "/scratch/rdu230/d3tales/high_throughput/runfiles//05XICU/gaussian/gas_phase/opt/opt_cation2.chk"
 B after Tr=     0.000000    0.000000    0.000000
         Rot=    1.000000    0.000000    0.000000    0.000314 Ang=   0.04 deg.
 Guess basis will be translated and rotated to current coordinates.
 JPrj=2 DoOrth=T DoCkMO=T.
 Initial guess orbital symmetries:
       Occupied  (A') (A') (A') (A')
       Virtual   (A") (A') (A') (A') (A') (A") (A') (A') (A') (A")
                 (A') (A") (A') (A') (A') (A") (A") (A') (A') (A')
 The electronic state of the initial guess is 1-A'.
 Generating alternative initial guess.
 ExpMin= 1.22D-01 ExpMax= 2.27D+03 ExpMxC= 3.41D+02 IAcc=2 IRadAn=         4 AccDes= 0.00D+00
 Harris functional with IExCor=33909 and IRadAn=       4 diagonalized for initial guess.
 HarFok:  IExCor=33909 AccDes= 0.00D+00 IRadAn=         4 IDoV= 1 UseB2=F ITyADJ=14
 ICtDFT=  3500011 ScaDFX=  1.000000  1.000000  1.000000  1.000000
 FoFCou: FMM=F IPFlag=           0 FMFlag=      100000 FMFlg1=           0
         NFxFlg=           0 DoJE=T BraDBF=F KetDBF=T FulRan=T
         wScrn=  0.000000 ICntrl=       500 IOpCl=  0 I1Cent=   200000004 NGrid=           0
         NMat0=    1 NMatS0=      1 NMatT0=    0 NMatD0=    1 NMtDS0=    0 NMtDT0=    0
 Petite list used in FoFCou.
 Harris En= -73.6587018478293    
 Leave Link  401 at Wed Aug 10 17:03:58 2022, MaxMem=  6442450944 cpu:               2.7 elap:               0.2
 (Enter /mnt/gpfs3_amd/share/apps/amd/gaussian/g16-A.03/g16/l502.exe)
 Keep R1 ints in memory in symmetry-blocked form, NReq=13884302.
 FoFCou: FMM=F IPFlag=           0 FMFlag=           0 FMFlg1=           0
         NFxFlg=           0 DoJE=F BraDBF=F KetDBF=F FulRan=T
         wScrn=  0.000000 ICntrl=       600 IOpCl=  0 I1Cent=           0 NGrid=           0
         NMat0=    1 NMatS0=    300 NMatT0=    0 NMatD0=    1 NMtDS0=    0 NMtDT0=    0
 Petite list used in FoFCou.
 Closed shell SCF:
 Using DIIS extrapolation, IDIIS=  1040.
 NGot=  6442450944 LenX=  6442423464 LenY=  6442422398
 Requested convergence on RMS density matrix=1.00D-08 within 512 cycles.
 Requested convergence on MAX density matrix=1.00D-06.
 Requested convergence on             energy=1.00D-06.
 No special actions if energy rises.
 Integral accuracy reduced to 1.0D-05 until final iterations.

 Cycle   1  Pass 0  IDiag  1:
 E= -74.8185884495747    
 DIIS: error= 1.71D-02 at cycle   1 NSaved=   1.
 NSaved= 1 IEnMin= 1 EnMin= -74.8185884495747     IErMin= 1 ErrMin= 1.71D-02
 ErrMax= 1.71D-02  0.00D+00 EMaxC= 1.00D-01 BMatC= 7.91D-03 BMatP= 7.91D-03
 IDIUse=3 WtCom= 8.29D-01 WtEn= 1.71D-01
 Coeff-Com:  0.100D+01
 Coeff-En:   0.100D+01
 Coeff:      0.100D+01
 Recover alternate guess density for next cycle.
 RMSDP=1.83D-02 MaxDP=1.72D-01              OVMax= 0.00D+00

 Cycle   2  Pass 0  IDiag  1:
 E= -74.5666133507232     Delta-E=        0.251975098852 Rises=F Damp=F
 Switch densities from cycles 1 and 2 for lowest energy.
 DIIS: error= 1.07D-01 at cycle   2 NSaved=   2.
 NSaved= 2 IEnMin= 1 EnMin= -74.8185884495747     IErMin= 1 ErrMin= 1.71D-02
 ErrMax= 1.07D-01  0.00D+00 EMaxC= 1.00D+00 BMatC= 2.82D-01 BMatP= 7.91D-03
 IDIUse=1 WtCom= 1.00D+00 WtEn= 0.00D+00
 Coeff-Com:  0.946D+00 0.536D-01
 Coeff:      0.946D+00 0.536D-01
 Gap=     0.436 Goal=   None    Shift=    0.000
 RMSDP=4.75D-03 MaxDP=3.01D-02 DE= 2.52D-01 OVMax= 2.48D-02

 Cycle   3  Pass 0  IDiag  1:
 E= -74.8259077693905     Delta-E=       -0.259294418667 Rises=F Damp=F
 DIIS: error= 5.01D-03 at cycle   3 NSaved=   3.
 NSaved= 3 IEnMin= 3 EnMin= -74.8259077693905     IErMin= 3 ErrMin= 5.01D-03
 ErrMax= 5.01D-03  0.00D+00 EMaxC= 1.00D+00 BMatC= 4.05D-04 BMatP= 7.91D-03
 IDIUse=1 WtCom= 1.00D+00 WtEn= 0.00D+00
 Coeff-Com: -0.950D-01 0.259D-01 0.107D+01
 Coeff:     -0.950D-01 0.259D-01 0.107D+01
 Gap=     0.429 Goal=   None    Shift=    0.000
 RMSDP=9.36D-04 MaxDP=7.01D-03 DE=-2.59D-01 OVMax= 6.79D-03

 Cycle   4  Pass 0  IDiag  1:
 E= -74.8262744283570     Delta-E=       -0.000366658967 Rises=F Damp=F
 DIIS: error= 3.00D-04 at cycle   4 NSaved=   4.
 NSaved= 4 IEnMin= 4 EnMin= -74.8262744283570     IErMin= 4 ErrMin= 3.00D-04
 ErrMax= 3.00D-04  0.00D+00 EMaxC= 1.00D+00 BMatC= 3.86D-06 BMatP= 4.05D-04
 IDIUse=1 WtCom= 1.00D+00 WtEn= 0.00D+00
 Coeff-Com: -0.181D-02-0.303D-02-0.896D-01 0.109D+01
 Coeff:     -0.181D-02-0.303D-02-0.896D-01 0.109D+01
 Gap=     0.429 Goal=   None    Shift=    0.000
 RMSDP=1.32D-04 MaxDP=1.07D-03 DE=-3.67D-04 OVMax= 1.38D-03

 Cycle   5  Pass 0  IDiag  1:
 E= -74.8262807642741     Delta-E=       -0.000006335917 Rises=F Damp=F
 DIIS: error= 7.57D-05 at cycle   5 NSaved=   5.
 NSaved= 5 IEnMin= 5 EnMin= -74.8262807642741     IErMin= 5 ErrMin= 7.57D-05
 ErrMax= 7.57D-05  0.00D+00 EMaxC= 1.00D+00 BMatC= 9.17D-08 BMatP= 3.86D-06
 IDIUse=1 WtCom= 1.00D+00 WtEn= 0.00D+00
 Coeff-Com:  0.206D-02-0.197D-03-0.112D-01-0.843D-01 0.109D+01
 Coeff:      0.206D-02-0.197D-03-0.112D-01-0.843D-01 0.109D+01
 Gap=     0.429 Goal=   None    Shift=    0.000
 RMSDP=2.04D-05 MaxDP=1.26D-04 DE=-6.34D-06 OVMax= 3.01D-04

 Cycle   6  Pass 0  IDiag  1:
 E= -74.8262809723429     Delta-E=       -0.000000208069 Rises=F Damp=F
 DIIS: error= 1.38D-05 at cycle   6 NSaved=   6.
 NSaved= 6 IEnMin= 6 EnMin= -74.8262809723429     IErMin= 6 ErrMin= 1.38D-05
 ErrMax= 1.38D-05  0.00D+00 EMaxC= 1.00D+00 BMatC= 3.77D-09 BMatP= 9.17D-08
 IDIUse=1 WtCom= 1.00D+00 WtEn= 0.00D+00
 Coeff-Com: -0.455D-03 0.147D-03 0.480D-02-0.940D-02-0.267D+00 0.127D+01
 Coeff:     -0.455D-03 0.147D-03 0.480D-02-0.940D-02-0.267D+00 0.127D+01
 Gap=     0.429 Goal=   None    Shift=    0.000
 RMSDP=4.73D-06 MaxDP=3.69D-05 DE=-2.08D-07 OVMax= 7.57D-05

 Initial convergence to 1.0D-05 achieved.  Increase integral accuracy.
 Cycle   7  Pass 1  IDiag  1:
 E= -74.8262803284902     Delta-E=        0.000000643853 Rises=F Damp=F
 DIIS: error= 3.20D-06 at cycle   1 NSaved=   1.
 NSaved= 1 IEnMin= 1 EnMin= -74.8262803284902     IErMin= 1 ErrMin= 3.20D-06
 ErrMax= 3.20D-06  0.00D+00 EMaxC= 1.00D+00 BMatC= 1.19D-10 BMatP= 1.19D-10
 IDIUse=1 WtCom= 1.00D+00 WtEn= 0.00D+00
 Coeff-Com:  0.100D+01
 Coeff:      0.100D+01
 Gap=     0.429 Goal=   None    Shift=    0.000
 RMSDP=4.73D-06 MaxDP=3.69D-05 DE= 6.44D-07 OVMax= 5.47D-06

 Cycle   8  Pass 1  IDiag  1:
 E= -74.8262803286521     Delta-E=       -0.000000000162 Rises=F Damp=F
 DIIS: error= 5.12D-07 at cycle   2 NSaved=   2.
 NSaved= 2 IEnMin= 2 EnMin= -74.8262803286521     IErMin= 2 ErrMin= 5.12D-07
 ErrMax= 5.12D-07  0.00D+00 EMaxC= 1.00D+00 BMatC= 6.46D-12 BMatP= 1.19D-10
 IDIUse=1 WtCom= 1.00D+00 WtEn= 0.00D+00
 Coeff-Com: -0.233D+00 0.123D+01
 Coeff:     -0.233D+00 0.123D+01
 Gap=     0.429 Goal=   None    Shift=    0.000
 RMSDP=1.54D-07 MaxDP=1.24D-06 DE=-1.62D-10 OVMax= 2.13D-06

 Cycle   9  Pass 1  IDiag  1:
 E= -74.8262803286660     Delta-E=       -0.000000000014 Rises=F Damp=F
 DIIS: error= 1.21D-07 at cycle   3 NSaved=   3.
 NSaved= 3 IEnMin= 3 EnMin= -74.8262803286660     IErMin= 3 ErrMin= 1.21D-07
 ErrMax= 1.21D-07  0.00D+00 EMaxC= 1.00D+00 BMatC= 2.24D-13 BMatP= 6.46D-12
 IDIUse=1 WtCom= 1.00D+00 WtEn= 0.00D+00
 Coeff-Com: -0.267D-02-0.901D-01 0.109D+01
 Coeff:     -0.267D-02-0.901D-01 0.109D+01
 Gap=     0.429 Goal=   None    Shift=    0.000
 RMSDP=2.81D-08 MaxDP=3.71D-07 DE=-1.40D-11 OVMax= 4.94D-07

 Cycle  10  Pass 1  IDiag  1:
 E= -74.8262803286667     Delta-E=       -0.000000000001 Rises=F Damp=F
 DIIS: error= 4.41D-08 at cycle   4 NSaved=   4.
 NSaved= 4 IEnMin= 4 EnMin= -74.8262803286667     IErMin= 4 ErrMin= 4.41D-08
 ErrMax= 4.41D-08  0.00D+00 EMaxC= 1.00D+00 BMatC= 3.42D-14 BMatP= 2.24D-13
 IDIUse=1 WtCom= 1.00D+00 WtEn= 0.00D+00
 Coeff-Com:  0.205D-01-0.131D+00 0.273D+00 0.838D+00
 Coeff:      0.205D-01-0.131D+00 0.273D+00 0.838D+00
 Gap=     0.429 Goal=   None    Shift=    0.000
 RMSDP=7.28D-09 MaxDP=8.30D-08 DE=-6.54D-13 OVMax= 7.84D-08

 SCF Done:  E(RLC-wHPBE) =  -74.8262803287     A.U. after   10 cycles
            NFock= 10  Conv=0.73D-08     -V/T= 2.0029
 KE= 7.461112049180D+01 PE=-1.853994342233D+02 EE= 2.791662434082D+01
 Leave Link  502 at Wed Aug 10 17:03:58 2022, MaxMem=  6442450944 cpu:               5.6 elap:               0.4
 (Enter /mnt/gpfs3_amd/share/apps/amd/gaussian/g16-A.03/g16/l701.exe)
 ... and contract with generalized density number  0.
 Compute integral first derivatives.
   2 Symmetry operations used in ECPInt.
 ECPInt:  NShTT=      78 NPrTT=     272 LenC2=      79 LenP2D=     267.
 LDataN:  DoStor=T MaxTD1= 5 Len=  102
 Leave Link  701 at Wed Aug 10 17:03:58 2022, MaxMem=  6442450944 cpu:               1.4 elap:               0.1
 (Enter /mnt/gpfs3_amd/share/apps/amd/gaussian/g16-A.03/g16/l702.exe)
 L702 exits ... SP integral derivatives will be done elsewhere.
 Leave Link  702 at Wed Aug 10 17:03:58 2022, MaxMem=  6442450944 cpu:               0.1 elap:               0.0
 (Enter /mnt/gpfs3_amd/share/apps/amd/gaussian/g16-A.03/g16/l703.exe)
 Integral derivatives from FoFJK, PRISM(SPDF).
 Compute integral first derivatives, UseDBF=F ICtDFT=           0.
 Calling FoFJK, ICntrl=      2127 FMM=F ISym2X=1 I1Cent= 0 IOpClX= 0 NMat=1 NMatS=1 NMatT=0.
 FoFJK:  IHMeth= 1 ICntrl=    2127 DoSepK=T KAlg= 0 I1Cent=           0 FoldK=F
 IRaf=         1 NMat=       1 IRICut=       1 DoRegI=T DoRafI=F ISym2E= 1 IDoP0=0 IntGTp=1.
 FoFCou: FMM=F IPFlag=           0 FMFlag=      100000 FMFlg1=         800
         NFxFlg=           0 DoJE=F BraDBF=F KetDBF=F FulRan=T
         wScrn=  0.000000 ICntrl=      2527 IOpCl=  0 I1Cent=           0 NGrid=           0
         NMat0=    1 NMatS0=      1 NMatT0=    0 NMatD0=    1 NMtDS0=    0 NMtDT0=    0
 Petite list used in FoFCou.
 Leave Link  703 at Wed Aug 10 17:03:59 2022, MaxMem=  6442450944 cpu:               6.3 elap:               0.4
 (Enter /mnt/gpfs3_amd/share/apps/amd/gaussian/g16-A.03/g16/l716.exe)
 Dipole        =-6.32949118D-04-1.02683539D+00 1.36026996D-32
 ***** Axes restored to original set *****
 -------------------------------------------------------------------
 Center     Atomic                   Forces (Hartrees/Bohr)
 Number     Number              X              Y              Z
 -------------------------------------------------------------------
      1        8           0.000291471    0.026920083   -0.000000000
      2        1          -0.033633103   -0.013591165    0.000000000
      3        1           0.033341633   -0.013328918   -0.000000000
 -------------------------------------------------------------------
 Cartesian Forces:  Max     0.033633103 RMS     0.019235401
 Leave Link  716 at Wed Aug 10 17:03:59 2022, MaxMem=  6442450944 cpu:               0.1 elap:               0.0
 (Enter /mnt/gpfs3_amd/share/apps/amd/gaussian/g16-A.03/g16/l103.exe)

 GradGradGradGradGradGradGradGradGradGradGradGradGradGradGradGradGradGrad
 Berny optimization.
 Using GEDIIS/GDIIS optimizer.
 FormGI is forming the generalized inverse of G from B-inverse, IUseBI=4.
 Internal  Forces:  Max     0.035588773 RMS     0.030091169
 Search for a local minimum.
 Step number   2 out of a maximum of   20
 All quantities printed in internal units (Hartrees-Bohrs-Radians)
 RMS Force = .30091D-01 SwitMx=.10000D-02 MixMth= 1
 Mixed Optimization -- RFO/linear search
 Update second derivatives using D2CorX and points    1    2
 DE= -2.74D-02 DEPred=-2.42D-02 R= 1.13D+00
 TightC=F SS=  1.41D+00  RLast= 3.00D-01 DXNew= 5.0454D-01 9.0000D-01
 Trust test= 1.13D+00 RLast= 3.00D-01 DXMaxT set to 5.05D-01
 The second derivative matrix:
                          R1        R2        A1
           R1           0.43355
           R2          -0.05561   0.43157
           A1          -0.01634  -0.01615   0.15533
 ITU=  1  0
 Use linear search instead of GDIIS.
 Linear search step of   0.600 exceeds DXMaxT=   0.505 but not scaled.
 Quartic linear search produced a step of  2.00000.
 Iteration  1 RMS(Cart)=  0.22955424 RMS(Int)=  0.14723145
 Iteration  2 RMS(Cart)=  0.16559635 RMS(Int)=  0.00506200
 Iteration  3 RMS(Cart)=  0.00490242 RMS(Int)=  0.00001666
 Iteration  4 RMS(Cart)=  0.00001793 RMS(Int)=  0.00000000
 Iteration  5 RMS(Cart)=  0.00000000 RMS(Int)=  0.00000000
 ITry= 1 IFail=0 DXMaxC= 4.83D-01 DCOld= 1.00D+10 DXMaxT= 5.05D-01 DXLimC= 3.00D+00 Rises=F
 ClnCor:  largest displacement from symmetrization is 4.48D-16 for atom     2.
 Variable       Old X    -DE/DX   Delta X   Delta X   Delta X     New X
                                 (Linear)    (Quad)   (Total)
    R1        2.06202   0.03559   0.37178   0.00000   0.37178   2.43380
    R2        2.06380   0.03521   0.36875   0.00000   0.36875   2.43256
    A1        1.98564   0.01448   0.29291   0.00000   0.29291   2.27856
         Item               Value     Threshold  Converged?
 Maximum Force            0.035589     0.000450     NO 
 RMS     Force            0.030091     0.000300     NO 
 Maximum Displacement     0.482866     0.001800     NO 
 RMS     Displacement     0.397157     0.001200     NO 
 Predicted change in Energy=-2.436196D-02
 Lowest energy point so far.  Saving SCF results.
 GradGradGradGradGradGradGradGradGradGradGradGradGradGradGradGradGradGrad

 Leave Link  103 at Wed Aug 10 17:03:59 2022, MaxMem=  6442450944 cpu:               0.1 elap:               0.0
 (Enter /mnt/gpfs3_amd/share/apps/amd/gaussian/g16-A.03/g16/l202.exe)
                          Input orientation:                          
 ---------------------------------------------------------------------
 Center     Atomic      Atomic             Coordinates (Angstroms)
 Number     Number       Type             X           Y           Z
 ---------------------------------------------------------------------
      1          8           0       -0.000038    0.359021   -0.000000
      2          1           0       -1.169534   -0.180422    0.000000
      3          1           0        1.169572   -0.178597   -0.000000
 ---------------------------------------------------------------------
                    Distance matrix (angstroms):
                    1          2          3
     1  O    0.000000
     2  H    1.287913   0.000000
     3  H    1.287253   2.339107   0.000000
 Stoichiometry    H2O(2+)
 Framework group  CS[SG(H2O)]
 Deg. of freedom     3
 Full point group                 CS      NOp   2
 RotChk:  IX=0 Diff= 2.12D-03
 Largest Abelian subgroup         CS      NOp   2
 Largest concise Abelian subgroup C1      NOp   1
                         Standard orientation:                         
 ---------------------------------------------------------------------
 Center     Atomic      Atomic             Coordinates (Angstroms)
 Number     Number       Type             X           Y           Z
 ---------------------------------------------------------------------
      1          8           0        0.000000    0.107706    0.000000
      2          1           0        1.169553   -0.431614    0.000000
      3          1           0       -1.169553   -0.430036    0.000000
 ---------------------------------------------------------------------
 Rotational constants (GHZ):         973.4785915         183.2997882         154.2546289
 Leave Link  202 at Wed Aug 10 17:03:59 2022, MaxMem=  6442450944 cpu:               0.1 elap:               0.0
 (Enter /mnt/gpfs3_amd/share/apps/amd/gaussian/g16-A.03/g16/l301.exe)
 Standard basis: def2SVP (5D, 7F)
 Ernie: Thresh=  0.10000D-02 Tol=  0.10000D-05 Strict=F.
 There are    19 symmetry adapted cartesian basis functions of A'  symmetry.
 There are     6 symmetry adapted cartesian basis functions of A"  symmetry.
 There are    18 symmetry adapted basis functions of A'  symmetry.
 There are     6 symmetry adapted basis functions of A"  symmetry.
    24 basis functions,    39 primitive gaussians,    25 cartesian basis functions
     4 alpha electrons        4 beta electrons
       nuclear repulsion energy         6.8019889415 Hartrees.
 IExCor=33909 DFT=T Ex+Corr=LC-wHPBE ExCW=0 ScaHFX=  1.000000
 ScaDFX=  1.000000  1.000000  1.000000  1.000000 ScalE2=  1.000000  1.000000
 IRadAn=      5 IRanWt=     -1 IRanGd=            0 ICorTp=0 IEmpDi=  4
 HFx  wShort=  0.000000 wLong=  0.499400 cFull=  0.000000 cShort=  0.000000 cLong=  1.000000
 DFx  wShort=  0.000000 wLong=  0.499400 cFull=  0.000000 cShort=  1.000000 cLong=  0.000000
 NAtoms=    3 NActive=    3 NUniq=    3 SFac= 1.00D+00 NAtFMM=   60 NAOKFM=F Big=F
 Integral buffers will be    131072 words long.
 Raffenetti 2 integral format.
 Two-electron integral symmetry is turned on.
 Leave Link  301 at Wed Aug 10 17:03:59 2022, MaxMem=  6442450944 cpu:               0.3 elap:               0.0
 (Enter /mnt/gpfs3_amd/share/apps/amd/gaussian/g16-A.03/g16/l302.exe)
 NPDir=0 NMtPBC=     1 NCelOv=     1 NCel=       1 NClECP=     1 NCelD=      1
         NCelK=      1 NCelE2=     1 NClLst=     1 CellRange=     0.0.
 One-electron integrals computed using PRISM.
 One-electron integral symmetry used in STVInt
   2 Symmetry operations used in ECPInt.
 ECPInt:  NShTT=      78 NPrTT=     272 LenC2=      79 LenP2D=     265.
 LDataN:  DoStor=T MaxTD1= 4 Len=   56
 NBasis=    24 RedAO= T EigKep=  7.66D-02  NBF=    18     6
 NBsUse=    24 1.00D-06 EigRej= -1.00D+00 NBFU=    18     6
 Precomputing XC quadrature grid using
 IXCGrd= 4 IRadAn=           5 IRanWt=          -1 IRanGd=           0 AccXCQ= 0.00D+00.
 Generated NRdTot=       0 NPtTot=           0 NUsed=           0 NTot=          32
 NSgBfM=    25    25    25    25    25 MxSgAt=     3 MxSgA2=     3.
 Leave Link  302 at Wed Aug 10 17:03:59 2022, MaxMem=  6442450944 cpu:               2.8 elap:               0.2
 (Enter /mnt/gpfs3_amd/share/apps/amd/gaussian/g16-A.03/g16/l303.exe)
 DipDrv:  MaxL=1.
 Leave Link  303 at Wed Aug 10 17:03:59 2022, MaxMem=  6442450944 cpu:               1.0 elap:               0.1
 (Enter /mnt/gpfs3_amd/share/apps/amd/gaussian/g16-A.03/g16/l401.exe)
 Initial guess from the checkpoint file:  "/scratch/rdu230/d3tales/high_throughput/runfiles//05XICU/gaussian/gas_phase/opt/opt_cation2.chk"
 B after Tr=    -0.000000   -0.000000   -0.000000
         Rot=    1.000000   -0.000000    0.000000    0.000653 Ang=   0.07 deg.
 Guess basis will be translated and rotated to current coordinates.
 JPrj=2 DoOrth=T DoCkMO=T.
 Initial guess orbital symmetries:
       Occupied  (A') (A') (A') (A')
       Virtual   (A") (A') (A') (A') (A') (A") (A') (A') (A') (A")
                 (A') (A") (A') (A') (A') (A") (A") (A') (A') (A')
 The electronic state of the initial guess is 1-A'.
 Generating alternative initial guess.
 ExpMin= 1.22D-01 ExpMax= 2.27D+03 ExpMxC= 3.41D+02 IAcc=2 IRadAn=         4 AccDes= 0.00D+00
 Harris functional with IExCor=33909 and IRadAn=       4 diagonalized for initial guess.
 HarFok:  IExCor=33909 AccDes= 0.00D+00 IRadAn=         4 IDoV= 1 UseB2=F ITyADJ=14
 ICtDFT=  3500011 ScaDFX=  1.000000  1.000000  1.000000  1.000000
 FoFCou: FMM=F IPFlag=           0 FMFlag=      100000 FMFlg1=           0
         NFxFlg=           0 DoJE=T BraDBF=F KetDBF=T FulRan=T
         wScrn=  0.000000 ICntrl=       500 IOpCl=  0 I1Cent=   200000004 NGrid=           0
         NMat0=    1 NMatS0=      1 NMatT0=    0 NMatD0=    1 NMtDS0=    0 NMtDT0=    0
 Petite list used in FoFCou.
 Harris En= -73.6498548995793    
 Leave Link  401 at Wed Aug 10 17:03:59 2022, MaxMem=  6442450944 cpu:               2.4 elap:               0.2
 (Enter /mnt/gpfs3_amd/share/apps/amd/gaussian/g16-A.03/g16/l502.exe)
 Keep R1 ints in memory in symmetry-blocked form, NReq=13884302.
 FoFCou: FMM=F IPFlag=           0 FMFlag=           0 FMFlg1=           0
         NFxFlg=           0 DoJE=F BraDBF=F KetDBF=F FulRan=T
         wScrn=  0.000000 ICntrl=       600 IOpCl=  0 I1Cent=           0 NGrid=           0
         NMat0=    1 NMatS0=    300 NMatT0=    0 NMatD0=    1 NMtDS0=    0 NMtDT0=    0
 Petite list used in FoFCou.
 Closed shell SCF:
 Using DIIS extrapolation, IDIIS=  1040.
 NGot=  6442450944 LenX=  6442423464 LenY=  6442422398
 Requested convergence on RMS density matrix=1.00D-08 within 512 cycles.
 Requested convergence on MAX density matrix=1.00D-06.
 Requested convergence on             energy=1.00D-06.
 No special actions if energy rises.
 Integral accuracy reduced to 1.0D-05 until final iterations.

 Cycle   1  Pass 0  IDiag  1:
 E= -74.8094194878787    
 DIIS: error= 2.61D-02 at cycle   1 NSaved=   1.
 NSaved= 1 IEnMin= 1 EnMin= -74.8094194878787     IErMin= 1 ErrMin= 2.61D-02
 ErrMax= 2.61D-02  0.00D+00 EMaxC= 1.00D-01 BMatC= 1.99D-02 BMatP= 1.99D-02
 IDIUse=3 WtCom= 7.39D-01 WtEn= 2.61D-01
 Coeff-Com:  0.100D+01
 Coeff-En:   0.100D+01
 Coeff:      0.100D+01
 Recover alternate guess density for next cycle.
 RMSDP=2.09D-02 MaxDP=1.92D-01              OVMax= 0.00D+00

 Cycle   2  Pass 0  IDiag  1:
 E= -74.5134256745921     Delta-E=        0.295993813287 Rises=F Damp=F
 Switch densities from cycles 1 and 2 for lowest energy.
 DIIS: error= 1.15D-01 at cycle   2 NSaved=   2.
 NSaved= 2 IEnMin= 1 EnMin= -74.8094194878787     IErMin= 1 ErrMin= 2.61D-02
 ErrMax= 1.15D-01  0.00D+00 EMaxC= 1.00D+00 BMatC= 3.18D-01 BMatP= 1.99D-02
 IDIUse=1 WtCom= 1.00D+00 WtEn= 0.00D+00
 Coeff-Com:  0.892D+00 0.108D+00
 Coeff:      0.892D+00 0.108D+00
 Gap=     0.415 Goal=   None    Shift=    0.000
 RMSDP=6.61D-03 MaxDP=4.07D-02 DE= 2.96D-01 OVMax= 4.36D-02

 Cycle   3  Pass 0  IDiag  1:
 E= -74.8294827216544     Delta-E=       -0.316057047062 Rises=F Damp=F
 DIIS: error= 9.87D-03 at cycle   3 NSaved=   3.
 NSaved= 3 IEnMin= 3 EnMin= -74.8294827216544     IErMin= 3 ErrMin= 9.87D-03
 ErrMax= 9.87D-03  0.00D+00 EMaxC= 1.00D+00 BMatC= 1.67D-03 BMatP= 1.99D-02
 IDIUse=1 WtCom= 1.00D+00 WtEn= 0.00D+00
 Coeff-Com: -0.114D+00 0.514D-01 0.106D+01
 Coeff:     -0.114D+00 0.514D-01 0.106D+01
 Gap=     0.404 Goal=   None    Shift=    0.000
 RMSDP=1.67D-03 MaxDP=1.54D-02 DE=-3.16D-01 OVMax= 1.35D-02

 Cycle   4  Pass 0  IDiag  1:
 E= -74.8309976398376     Delta-E=       -0.001514918183 Rises=F Damp=F
 DIIS: error= 7.34D-04 at cycle   4 NSaved=   4.
 NSaved= 4 IEnMin= 4 EnMin= -74.8309976398376     IErMin= 4 ErrMin= 7.34D-04
 ErrMax= 7.34D-04  0.00D+00 EMaxC= 1.00D+00 BMatC= 1.87D-05 BMatP= 1.67D-03
 IDIUse=1 WtCom= 1.00D+00 WtEn= 0.00D+00
 Coeff-Com:  0.107D-01-0.866D-02-0.167D+00 0.117D+01
 Coeff:      0.107D-01-0.866D-02-0.167D+00 0.117D+01
 Gap=     0.405 Goal=   None    Shift=    0.000
 RMSDP=3.08D-04 MaxDP=1.90D-03 DE=-1.51D-03 OVMax= 4.70D-03

 Cycle   5  Pass 0  IDiag  1:
 E= -74.8310448398875     Delta-E=       -0.000047200050 Rises=F Damp=F
 DIIS: error= 2.00D-04 at cycle   5 NSaved=   5.
 NSaved= 5 IEnMin= 5 EnMin= -74.8310448398875     IErMin= 5 ErrMin= 2.00D-04
 ErrMax= 2.00D-04  0.00D+00 EMaxC= 1.00D+00 BMatC= 8.01D-07 BMatP= 1.87D-05
 IDIUse=1 WtCom= 1.00D+00 WtEn= 0.00D+00
 Coeff-Com: -0.545D-05 0.514D-03 0.120D-01-0.247D+00 0.123D+01
 Coeff:     -0.545D-05 0.514D-03 0.120D-01-0.247D+00 0.123D+01
 Gap=     0.405 Goal=   None    Shift=    0.000
 RMSDP=7.55D-05 MaxDP=5.36D-04 DE=-4.72D-05 OVMax= 1.43D-03

 Cycle   6  Pass 0  IDiag  1:
 E= -74.8310478018071     Delta-E=       -0.000002961920 Rises=F Damp=F
 DIIS: error= 3.64D-05 at cycle   6 NSaved=   6.
 NSaved= 6 IEnMin= 6 EnMin= -74.8310478018071     IErMin= 6 ErrMin= 3.64D-05
 ErrMax= 3.64D-05  0.00D+00 EMaxC= 1.00D+00 BMatC= 3.84D-08 BMatP= 8.01D-07
 IDIUse=1 WtCom= 1.00D+00 WtEn= 0.00D+00
 Coeff-Com: -0.662D-03 0.437D-03 0.597D-02-0.132D-01-0.248D+00 0.126D+01
 Coeff:     -0.662D-03 0.437D-03 0.597D-02-0.132D-01-0.248D+00 0.126D+01
 Gap=     0.405 Goal=   None    Shift=    0.000
 RMSDP=1.72D-05 MaxDP=1.21D-04 DE=-2.96D-06 OVMax= 3.13D-04

 Cycle   7  Pass 0  IDiag  1:
 E= -74.8310479225561     Delta-E=       -0.000000120749 Rises=F Damp=F
 DIIS: error= 5.08D-06 at cycle   7 NSaved=   7.
 NSaved= 7 IEnMin= 7 EnMin= -74.8310479225561     IErMin= 7 ErrMin= 5.08D-06
 ErrMax= 5.08D-06  0.00D+00 EMaxC= 1.00D+00 BMatC= 3.66D-10 BMatP= 3.84D-08
 IDIUse=1 WtCom= 1.00D+00 WtEn= 0.00D+00
 Coeff-Com:  0.123D-03-0.584D-04-0.995D-03 0.581D-02 0.295D-01-0.214D+00
 Coeff-Com:  0.118D+01
 Coeff:      0.123D-03-0.584D-04-0.995D-03 0.581D-02 0.295D-01-0.214D+00
 Coeff:      0.118D+01
 Gap=     0.405 Goal=   None    Shift=    0.000
 RMSDP=1.23D-06 MaxDP=1.20D-05 DE=-1.21D-07 OVMax= 1.99D-05

 Initial convergence to 1.0D-05 achieved.  Increase integral accuracy.
 Cycle   8  Pass 1  IDiag  1:
 E= -74.8310474121292     Delta-E=        0.000000510427 Rises=F Damp=F
 DIIS: error= 3.20D-06 at cycle   1 NSaved=   1.
 NSaved= 1 IEnMin= 1 EnMin= -74.8310474121292     IErMin= 1 ErrMin= 3.20D-06
 ErrMax= 3.20D-06  0.00D+00 EMaxC= 1.00D+00 BMatC= 1.63D-10 BMatP= 1.63D-10
 IDIUse=1 WtCom= 1.00D+00 WtEn= 0.00D+00
 Coeff-Com:  0.100D+01
 Coeff:      0.100D+01
 Gap=     0.405 Goal=   None    Shift=    0.000
 RMSDP=1.23D-06 MaxDP=1.20D-05 DE= 5.10D-07 OVMax= 6.40D-06

 Cycle   9  Pass 1  IDiag  1:
 E= -74.8310474123191     Delta-E=       -0.000000000190 Rises=F Damp=F
 DIIS: error= 6.74D-07 at cycle   2 NSaved=   2.
 NSaved= 2 IEnMin= 2 EnMin= -74.8310474123191     IErMin= 2 ErrMin= 6.74D-07
 ErrMax= 6.74D-07  0.00D+00 EMaxC= 1.00D+00 BMatC= 9.21D-12 BMatP= 1.63D-10
 IDIUse=1 WtCom= 1.00D+00 WtEn= 0.00D+00
 Coeff-Com: -0.135D+00 0.114D+01
 Coeff:     -0.135D+00 0.114D+01
 Gap=     0.405 Goal=   None    Shift=    0.000
 RMSDP=1.74D-07 MaxDP=2.03D-06 DE=-1.90D-10 OVMax= 1.98D-06

 Cycle  10  Pass 1  IDiag  1:
 E= -74.8310474123336     Delta-E=       -0.000000000014 Rises=F Damp=F
 DIIS: error= 2.67D-07 at cycle   3 NSaved=   3.
 NSaved= 3 IEnMin= 3 EnMin= -74.8310474123336     IErMin= 3 ErrMin= 2.67D-07
 ErrMax= 2.67D-07  0.00D+00 EMaxC= 1.00D+00 BMatC= 1.22D-12 BMatP= 9.21D-12
 IDIUse=1 WtCom= 1.00D+00 WtEn= 0.00D+00
 Coeff-Com: -0.600D-01 0.262D+00 0.798D+00
 Coeff:     -0.600D-01 0.262D+00 0.798D+00
 Gap=     0.405 Goal=   None    Shift=    0.000
 RMSDP=4.43D-08 MaxDP=6.22D-07 DE=-1.45D-11 OVMax= 7.94D-07

 Cycle  11  Pass 1  IDiag  1:
 E= -74.8310474123354     Delta-E=       -0.000000000002 Rises=F Damp=F
 DIIS: error= 7.54D-08 at cycle   4 NSaved=   4.
 NSaved= 4 IEnMin= 4 EnMin= -74.8310474123354     IErMin= 4 ErrMin= 7.54D-08
 ErrMax= 7.54D-08  0.00D+00 EMaxC= 1.00D+00 BMatC= 1.05D-13 BMatP= 1.22D-12
 IDIUse=1 WtCom= 1.00D+00 WtEn= 0.00D+00
 Coeff-Com:  0.247D-01-0.173D+00-0.859D-01 0.123D+01
 Coeff:      0.247D-01-0.173D+00-0.859D-01 0.123D+01
 Gap=     0.405 Goal=   None    Shift=    0.000
 RMSDP=2.28D-08 MaxDP=1.67D-07 DE=-1.82D-12 OVMax= 4.00D-07

 Cycle  12  Pass 1  IDiag  1:
 E= -74.8310474123354     Delta-E=        0.000000000000 Rises=F Damp=F
 DIIS: error= 7.03D-09 at cycle   5 NSaved=   5.
 NSaved= 5 IEnMin= 4 EnMin= -74.8310474123354     IErMin= 5 ErrMin= 7.03D-09
 ErrMax= 7.03D-09  0.00D+00 EMaxC= 1.00D+00 BMatC= 1.01D-15 BMatP= 1.05D-13
 IDIUse=1 WtCom= 1.00D+00 WtEn= 0.00D+00
 Coeff-Com: -0.148D-02 0.145D-01-0.130D-01-0.177D+00 0.118D+01
 Coeff:     -0.148D-02 0.145D-01-0.130D-01-0.177D+00 0.118D+01
 Gap=     0.405 Goal=   None    Shift=    0.000
 RMSDP=3.06D-09 MaxDP=2.34D-08 DE= 0.00D+00 OVMax= 5.54D-08

 SCF Done:  E(RLC-wHPBE) =  -74.8310474123     A.U. after   12 cycles
            NFock= 12  Conv=0.31D-08     -V/T= 2.0051
 KE= 7.444948525108D+01 PE=-1.837390376002D+02 EE= 2.765651599530D+01
 Leave Link  502 at Wed Aug 10 17:04:01 2022, MaxMem=  6442450944 cpu:              19.5 elap:               1.4
 (Enter /mnt/gpfs3_amd/share/apps/amd/gaussian/g16-A.03/g16/l701.exe)
 ... and contract with generalized density number  0.
 Compute integral first derivatives.
   2 Symmetry operations used in ECPInt.
 ECPInt:  NShTT=      78 NPrTT=     272 LenC2=      79 LenP2D=     265.
 LDataN:  DoStor=T MaxTD1= 5 Len=  102
 Leave Link  701 at Wed Aug 10 17:04:01 2022, MaxMem=  6442450944 cpu:               2.2 elap:               0.2
 (Enter /mnt/gpfs3_amd/share/apps/amd/gaussian/g16-A.03/g16/l702.exe)
 L702 exits ... SP integral derivatives will be done elsewhere.
 Leave Link  702 at Wed Aug 10 17:04:01 2022, MaxMem=  6442450944 cpu:               0.1 elap:               0.0
 (Enter /mnt/gpfs3_amd/share/apps/amd/gaussian/g16-A.03/g16/l703.exe)
 Integral derivatives from FoFJK, PRISM(SPDF).
 Compute integral first derivatives, UseDBF=F ICtDFT=           0.
 Calling FoFJK, ICntrl=      2127 FMM=F ISym2X=1 I1Cent= 0 IOpClX= 0 NMat=1 NMatS=1 NMatT=0.
 FoFJK:  IHMeth= 1 ICntrl=    2127 DoSepK=T KAlg= 0 I1Cent=           0 FoldK=F
 IRaf=         1 NMat=       1 IRICut=       1 DoRegI=T DoRafI=F ISym2E= 1 IDoP0=0 IntGTp=1.
 FoFCou: FMM=F IPFlag=           0 FMFlag=      100000 FMFlg1=         800
         NFxFlg=           0 DoJE=F BraDBF=F KetDBF=F FulRan=T
         wScrn=  0.000000 ICntrl=      2527 IOpCl=  0 I1Cent=           0 NGrid=           0
         NMat0=    1 NMatS0=      1 NMatT0=    0 NMatD0=    1 NMtDS0=    0 NMtDT0=    0
 Petite list used in FoFCou.
 Leave Link  703 at Wed Aug 10 17:04:01 2022, MaxMem=  6442450944 cpu:               4.6 elap:               0.3
 (Enter /mnt/gpfs3_amd/share/apps/amd/gaussian/g16-A.03/g16/l716.exe)
 Dipole        = 6.25701428D-04-1.06453499D+00-4.69460124D-37
 ***** Axes restored to original set *****
 -------------------------------------------------------------------
 Center     Atomic                   Forces (Hartrees/Bohr)
 Number     Number              X              Y              Z
 -------------------------------------------------------------------
      1        8          -0.000000437   -0.011367653   -0.000000000
      2        1           0.013745212    0.005694936    0.000000000
      3        1          -0.013744775    0.005672717   -0.000000000
 -------------------------------------------------------------------
 Cartesian Forces:  Max     0.013745212 RMS     0.007969980
 Leave Link  716 at Wed Aug 10 17:04:01 2022, MaxMem=  6442450944 cpu:               0.1 elap:               0.0
 (Enter /mnt/gpfs3_amd/share/apps/amd/gaussian/g16-A.03/g16/l103.exe)

 GradGradGradGradGradGradGradGradGradGradGradGradGradGradGradGradGradGrad
 Berny optimization.
 Using GEDIIS/GDIIS optimizer.
 FormGI is forming the generalized inverse of G from B-inverse, IUseBI=4.
 Internal  Forces:  Max     0.014866736 RMS     0.012162896
 Search for a local minimum.
 Step number   3 out of a maximum of   20
 All quantities printed in internal units (Hartrees-Bohrs-Radians)
 RMS Force = .12163D-01 SwitMx=.10000D-02 MixMth= 1
 Mixed Optimization -- RFO/linear search
 Update second derivatives using D2CorX and points    2    3
 The second derivative matrix:
                          R1        R2        A1
           R1           0.32590
           R2          -0.16105   0.32831
           A1          -0.03865  -0.03796   0.15116
 ITU=  0  1  0
 Use linear search instead of GDIIS.
     Eigenvalues ---    0.10393   0.21329   0.48816
 RFO step:  Lambda=-5.98304173D-08 EMin= 1.03926088D-01
 Quartic linear search produced a step of -0.43780.
 Iteration  1 RMS(Cart)=  0.17717543 RMS(Int)=  0.00679798
 Iteration  2 RMS(Cart)=  0.00544374 RMS(Int)=  0.00002239
 Iteration  3 RMS(Cart)=  0.00002630 RMS(Int)=  0.00000000
 Iteration  4 RMS(Cart)=  0.00000000 RMS(Int)=  0.00000000
 ITry= 1 IFail=0 DXMaxC= 2.13D-01 DCOld= 1.00D+10 DXMaxT= 5.05D-01 DXLimC= 3.00D+00 Rises=F
 ClnCor:  largest displacement from symmetrization is 2.48D-16 for atom     3.
 Variable       Old X    -DE/DX   Delta X   Delta X   Delta X     New X
                                 (Linear)    (Quad)   (Total)
    R1        2.43380  -0.01487  -0.16277   0.00018  -0.16258   2.27122
    R2        2.43256  -0.01486  -0.16144  -0.00002  -0.16146   2.27109
    A1        2.27856  -0.00143  -0.12824  -0.00052  -0.12876   2.14980
         Item               Value     Threshold  Converged?
 Maximum Force            0.014867     0.000450     NO 
 RMS     Force            0.012163     0.000300     NO 
 Maximum Displacement     0.212760     0.001800     NO 
 RMS     Displacement     0.176072     0.001200     NO 
 Predicted change in Energy=-9.857209D-04
 Lowest energy point so far.  Saving SCF results.
 GradGradGradGradGradGradGradGradGradGradGradGradGradGradGradGradGradGrad

 Leave Link  103 at Wed Aug 10 17:04:01 2022, MaxMem=  6442450944 cpu:               0.0 elap:               0.0
 (Enter /mnt/gpfs3_amd/share/apps/amd/gaussian/g16-A.03/g16/l202.exe)
                          Input orientation:                          
 ---------------------------------------------------------------------
 Center     Atomic      Atomic             Coordinates (Angstroms)
 Number     Number       Type             X           Y           Z
 ---------------------------------------------------------------------
      1          8           0       -0.000254    0.381241   -0.000000
      2          1           0       -1.056947   -0.191395   -0.000000
      3          1           0        1.057201   -0.189845    0.000000
 ---------------------------------------------------------------------
                    Distance matrix (angstroms):
                    1          2          3
     1  O    0.000000
     2  H    1.201878   0.000000
     3  H    1.201812   2.114148   0.000000
 Stoichiometry    H2O(2+)
 Framework group  CS[SG(H2O)]
 Deg. of freedom     3
 Full point group                 CS      NOp   2
 RotChk:  IX=0 Diff= 7.94D-04
 Largest Abelian subgroup         CS      NOp   2
 Largest concise Abelian subgroup C1      NOp   1
                         Standard orientation:                         
 ---------------------------------------------------------------------
 Center     Atomic      Atomic             Coordinates (Angstroms)
 Number     Number       Type             X           Y           Z
 ---------------------------------------------------------------------
      1          8           0        0.000000    0.114372    0.000000
      2          1           0        1.057074   -0.457559    0.000000
      3          1           0       -1.057074   -0.457420    0.000000
 ---------------------------------------------------------------------
 Rotational constants (GHZ):         863.3080598         224.3836930         178.0948051
 Leave Link  202 at Wed Aug 10 17:04:01 2022, MaxMem=  6442450944 cpu:               0.0 elap:               0.0
 (Enter /mnt/gpfs3_amd/share/apps/amd/gaussian/g16-A.03/g16/l301.exe)
 Standard basis: def2SVP (5D, 7F)
 Ernie: Thresh=  0.10000D-02 Tol=  0.10000D-05 Strict=F.
 There are    19 symmetry adapted cartesian basis functions of A'  symmetry.
 There are     6 symmetry adapted cartesian basis functions of A"  symmetry.
 There are    18 symmetry adapted basis functions of A'  symmetry.
 There are     6 symmetry adapted basis functions of A"  symmetry.
    24 basis functions,    39 primitive gaussians,    25 cartesian basis functions
     4 alpha electrons        4 beta electrons
       nuclear repulsion energy         7.2951686148 Hartrees.
 IExCor=33909 DFT=T Ex+Corr=LC-wHPBE ExCW=0 ScaHFX=  1.000000
 ScaDFX=  1.000000  1.000000  1.000000  1.000000 ScalE2=  1.000000  1.000000
 IRadAn=      5 IRanWt=     -1 IRanGd=            0 ICorTp=0 IEmpDi=  4
 HFx  wShort=  0.000000 wLong=  0.499400 cFull=  0.000000 cShort=  0.000000 cLong=  1.000000
 DFx  wShort=  0.000000 wLong=  0.499400 cFull=  0.000000 cShort=  1.000000 cLong=  0.000000
 NAtoms=    3 NActive=    3 NUniq=    3 SFac= 1.00D+00 NAtFMM=   60 NAOKFM=F Big=F
 Integral buffers will be    131072 words long.
 Raffenetti 2 integral format.
 Two-electron integral symmetry is turned on.
 Leave Link  301 at Wed Aug 10 17:04:01 2022, MaxMem=  6442450944 cpu:               0.4 elap:               0.0
 (Enter /mnt/gpfs3_amd/share/apps/amd/gaussian/g16-A.03/g16/l302.exe)
 NPDir=0 NMtPBC=     1 NCelOv=     1 NCel=       1 NClECP=     1 NCelD=      1
         NCelK=      1 NCelE2=     1 NClLst=     1 CellRange=     0.0.
 One-electron integrals computed using PRISM.
 One-electron integral symmetry used in STVInt
   2 Symmetry operations used in ECPInt.
 ECPInt:  NShTT=      78 NPrTT=     272 LenC2=      79 LenP2D=     265.
 LDataN:  DoStor=T MaxTD1= 4 Len=   56
 NBasis=    24 RedAO= T EigKep=  6.60D-02  NBF=    18     6
 NBsUse=    24 1.00D-06 EigRej= -1.00D+00 NBFU=    18     6
 Precomputing XC quadrature grid using
 IXCGrd= 4 IRadAn=           5 IRanWt=          -1 IRanGd=           0 AccXCQ= 0.00D+00.
 Generated NRdTot=       0 NPtTot=           0 NUsed=           0 NTot=          32
 NSgBfM=    25    25    25    25    25 MxSgAt=     3 MxSgA2=     3.
 Leave Link  302 at Wed Aug 10 17:04:02 2022, MaxMem=  6442450944 cpu:               2.2 elap:               0.2
 (Enter /mnt/gpfs3_amd/share/apps/amd/gaussian/g16-A.03/g16/l303.exe)
 DipDrv:  MaxL=1.
 Leave Link  303 at Wed Aug 10 17:04:02 2022, MaxMem=  6442450944 cpu:               0.1 elap:               0.0
 (Enter /mnt/gpfs3_amd/share/apps/amd/gaussian/g16-A.03/g16/l401.exe)
 Initial guess from the checkpoint file:  "/scratch/rdu230/d3tales/high_throughput/runfiles//05XICU/gaussian/gas_phase/opt/opt_cation2.chk"
 B after Tr=     0.000000   -0.000000    0.000000
         Rot=    1.000000    0.000000   -0.000000   -0.000254 Ang=  -0.03 deg.
 Guess basis will be translated and rotated to current coordinates.
 JPrj=2 DoOrth=T DoCkMO=T.
 Initial guess orbital symmetries:
       Occupied  (A') (A') (A') (A')
       Virtual   (A") (A') (A') (A') (A') (A") (A') (A') (A') (A")
                 (A') (A') (A") (A') (A') (A") (A') (A") (A') (A')
 The electronic state of the initial guess is 1-A'.
 Generating alternative initial guess.
 ExpMin= 1.22D-01 ExpMax= 2.27D+03 ExpMxC= 3.41D+02 IAcc=2 IRadAn=         4 AccDes= 0.00D+00
 Harris functional with IExCor=33909 and IRadAn=       4 diagonalized for initial guess.
 HarFok:  IExCor=33909 AccDes= 0.00D+00 IRadAn=         4 IDoV= 1 UseB2=F ITyADJ=14
 ICtDFT=  3500011 ScaDFX=  1.000000  1.000000  1.000000  1.000000
 FoFCou: FMM=F IPFlag=           0 FMFlag=      100000 FMFlg1=           0
         NFxFlg=           0 DoJE=T BraDBF=F KetDBF=T FulRan=T
         wScrn=  0.000000 ICntrl=       500 IOpCl=  0 I1Cent=   200000004 NGrid=           0
         NMat0=    1 NMatS0=      1 NMatT0=    0 NMatD0=    1 NMtDS0=    0 NMtDT0=    0
 Petite list used in FoFCou.
 Harris En= -73.6612672183585    
 Leave Link  401 at Wed Aug 10 17:04:02 2022, MaxMem=  6442450944 cpu:               2.4 elap:               0.2
 (Enter /mnt/gpfs3_amd/share/apps/amd/gaussian/g16-A.03/g16/l502.exe)
 Keep R1 ints in memory in symmetry-blocked form, NReq=13884302.
 FoFCou: FMM=F IPFlag=           0 FMFlag=           0 FMFlg1=           0
         NFxFlg=           0 DoJE=F BraDBF=F KetDBF=F FulRan=T
         wScrn=  0.000000 ICntrl=       600 IOpCl=  0 I1Cent=           0 NGrid=           0
         NMat0=    1 NMatS0=    300 NMatT0=    0 NMatD0=    1 NMtDS0=    0 NMtDT0=    0
 Petite list used in FoFCou.
 Closed shell SCF:
 Using DIIS extrapolation, IDIIS=  1040.
 NGot=  6442450944 LenX=  6442423464 LenY=  6442422398
 Requested convergence on RMS density matrix=1.00D-08 within 512 cycles.
 Requested convergence on MAX density matrix=1.00D-06.
 Requested convergence on             energy=1.00D-06.
 No special actions if energy rises.
 Integral accuracy reduced to 1.0D-05 until final iterations.

 Cycle   1  Pass 0  IDiag  1:
 E= -74.8309127274658    
 DIIS: error= 9.59D-03 at cycle   1 NSaved=   1.
 NSaved= 1 IEnMin= 1 EnMin= -74.8309127274658     IErMin= 1 ErrMin= 9.59D-03
 ErrMax= 9.59D-03  0.00D+00 EMaxC= 1.00D-01 BMatC= 2.79D-03 BMatP= 2.79D-03
 IDIUse=3 WtCom= 9.04D-01 WtEn= 9.59D-02
 Coeff-Com:  0.100D+01
 Coeff-En:   0.100D+01
 Coeff:      0.100D+01
 Gap=     0.416 Goal=   None    Shift=    0.000
 GapD=    0.416 DampG=2.000 DampE=1.000 DampFc=2.0000 IDamp=-1.
 RMSDP=2.47D-03 MaxDP=1.33D-02              OVMax= 1.60D-02

 Cycle   2  Pass 0  IDiag  1:
 E= -74.8336914949794     Delta-E=       -0.002778767514 Rises=F Damp=F
 DIIS: error= 1.84D-03 at cycle   2 NSaved=   2.
 NSaved= 2 IEnMin= 2 EnMin= -74.8336914949794     IErMin= 2 ErrMin= 1.84D-03
 ErrMax= 1.84D-03  0.00D+00 EMaxC= 1.00D-01 BMatC= 7.98D-05 BMatP= 2.79D-03
 IDIUse=3 WtCom= 9.82D-01 WtEn= 1.84D-02
 Coeff-Com: -0.116D+00 0.112D+01
 Coeff-En:   0.000D+00 0.100D+01
 Coeff:     -0.114D+00 0.111D+01
 Gap=     0.415 Goal=   None    Shift=    0.000
 RMSDP=5.26D-04 MaxDP=3.44D-03 DE=-2.78D-03 OVMax= 5.26D-03

 Cycle   3  Pass 0  IDiag  1:
 E= -74.8338053240369     Delta-E=       -0.000113829058 Rises=F Damp=F
 DIIS: error= 8.35D-04 at cycle   3 NSaved=   3.
 NSaved= 3 IEnMin= 3 EnMin= -74.8338053240369     IErMin= 3 ErrMin= 8.35D-04
 ErrMax= 8.35D-04  0.00D+00 EMaxC= 1.00D-01 BMatC= 1.11D-05 BMatP= 7.98D-05
 IDIUse=3 WtCom= 9.92D-01 WtEn= 8.35D-03
 Coeff-Com: -0.529D-01 0.290D+00 0.763D+00
 Coeff-En:   0.000D+00 0.000D+00 0.100D+01
 Coeff:     -0.524D-01 0.288D+00 0.765D+00
 Gap=     0.415 Goal=   None    Shift=    0.000
 RMSDP=1.16D-04 MaxDP=1.38D-03 DE=-1.14D-04 OVMax= 1.00D-03

 Cycle   4  Pass 0  IDiag  1:
 E= -74.8338146555531     Delta-E=       -0.000009331516 Rises=F Damp=F
 DIIS: error= 9.21D-05 at cycle   4 NSaved=   4.
 NSaved= 4 IEnMin= 4 EnMin= -74.8338146555531     IErMin= 4 ErrMin= 9.21D-05
 ErrMax= 9.21D-05  0.00D+00 EMaxC= 1.00D-01 BMatC= 2.70D-07 BMatP= 1.11D-05
 IDIUse=1 WtCom= 1.00D+00 WtEn= 0.00D+00
 Coeff-Com:  0.375D-02-0.465D-01 0.534D-02 0.104D+01
 Coeff:      0.375D-02-0.465D-01 0.534D-02 0.104D+01
 Gap=     0.414 Goal=   None    Shift=    0.000
 RMSDP=3.06D-05 MaxDP=2.44D-04 DE=-9.33D-06 OVMax= 5.03D-04

 Cycle   5  Pass 0  IDiag  1:
 E= -74.8338152255802     Delta-E=       -0.000000570027 Rises=F Damp=F
 DIIS: error= 2.73D-05 at cycle   5 NSaved=   5.
 NSaved= 5 IEnMin= 5 EnMin= -74.8338152255802     IErMin= 5 ErrMin= 2.73D-05
 ErrMax= 2.73D-05  0.00D+00 EMaxC= 1.00D-01 BMatC= 1.62D-08 BMatP= 2.70D-07
 IDIUse=1 WtCom= 1.00D+00 WtEn= 0.00D+00
 Coeff-Com:  0.116D-02-0.189D-02-0.412D-01-0.130D+00 0.117D+01
 Coeff:      0.116D-02-0.189D-02-0.412D-01-0.130D+00 0.117D+01
 Gap=     0.414 Goal=   None    Shift=    0.000
 RMSDP=8.77D-06 MaxDP=6.31D-05 DE=-5.70D-07 OVMax= 1.42D-04

 Initial convergence to 1.0D-05 achieved.  Increase integral accuracy.
 Cycle   6  Pass 1  IDiag  1:
 E= -74.8338179714079     Delta-E=       -0.000002745828 Rises=F Damp=F
 DIIS: error= 4.76D-06 at cycle   1 NSaved=   1.
 NSaved= 1 IEnMin= 1 EnMin= -74.8338179714079     IErMin= 1 ErrMin= 4.76D-06
 ErrMax= 4.76D-06  0.00D+00 EMaxC= 1.00D-01 BMatC= 4.02D-10 BMatP= 4.02D-10
 IDIUse=1 WtCom= 1.00D+00 WtEn= 0.00D+00
 Coeff-Com:  0.100D+01
 Coeff:      0.100D+01
 Gap=     0.414 Goal=   None    Shift=    0.000
 RMSDP=8.77D-06 MaxDP=6.31D-05 DE=-2.75D-06 OVMax= 1.58D-05

 Cycle   7  Pass 1  IDiag  1:
 E= -74.8338179723035     Delta-E=       -0.000000000896 Rises=F Damp=F
 DIIS: error= 1.62D-06 at cycle   2 NSaved=   2.
 NSaved= 2 IEnMin= 2 EnMin= -74.8338179723035     IErMin= 2 ErrMin= 1.62D-06
 ErrMax= 1.62D-06  0.00D+00 EMaxC= 1.00D-01 BMatC= 4.02D-11 BMatP= 4.02D-10
 IDIUse=1 WtCom= 1.00D+00 WtEn= 0.00D+00
 Coeff-Com: -0.342D+00 0.134D+01
 Coeff:     -0.342D+00 0.134D+01
 Gap=     0.414 Goal=   None    Shift=    0.000
 RMSDP=4.81D-07 MaxDP=4.86D-06 DE=-8.96D-10 OVMax= 8.66D-06

 Cycle   8  Pass 1  IDiag  1:
 E= -74.8338179724298     Delta-E=       -0.000000000126 Rises=F Damp=F
 DIIS: error= 3.90D-07 at cycle   3 NSaved=   3.
 NSaved= 3 IEnMin= 3 EnMin= -74.8338179724298     IErMin= 3 ErrMin= 3.90D-07
 ErrMax= 3.90D-07  0.00D+00 EMaxC= 1.00D-01 BMatC= 2.64D-12 BMatP= 4.02D-11
 IDIUse=1 WtCom= 1.00D+00 WtEn= 0.00D+00
 Coeff-Com: -0.919D-01 0.189D+00 0.903D+00
 Coeff:     -0.919D-01 0.189D+00 0.903D+00
 Gap=     0.414 Goal=   None    Shift=    0.000
 RMSDP=8.28D-08 MaxDP=9.00D-07 DE=-1.26D-10 OVMax= 1.07D-06

 Cycle   9  Pass 1  IDiag  1:
 E= -74.8338179724340     Delta-E=       -0.000000000004 Rises=F Damp=F
 DIIS: error= 7.91D-08 at cycle   4 NSaved=   4.
 NSaved= 4 IEnMin= 4 EnMin= -74.8338179724340     IErMin= 4 ErrMin= 7.91D-08
 ErrMax= 7.91D-08  0.00D+00 EMaxC= 1.00D-01 BMatC= 1.54D-13 BMatP= 2.64D-12
 IDIUse=1 WtCom= 1.00D+00 WtEn= 0.00D+00
 Coeff-Com:  0.156D-01-0.865D-01 0.116D+00 0.955D+00
 Coeff:      0.156D-01-0.865D-01 0.116D+00 0.955D+00
 Gap=     0.414 Goal=   None    Shift=    0.000
 RMSDP=2.00D-08 MaxDP=2.37D-07 DE=-4.26D-12 OVMax= 3.75D-07

 Cycle  10  Pass 1  IDiag  1:
 E= -74.8338179724343     Delta-E=       -0.000000000000 Rises=F Damp=F
 DIIS: error= 9.01D-09 at cycle   5 NSaved=   5.
 NSaved= 5 IEnMin= 5 EnMin= -74.8338179724343     IErMin= 5 ErrMin= 9.01D-09
 ErrMax= 9.01D-09  0.00D+00 EMaxC= 1.00D-01 BMatC= 2.30D-15 BMatP= 1.54D-13
 IDIUse=1 WtCom= 1.00D+00 WtEn= 0.00D+00
 Coeff-Com:  0.174D-02-0.584D-03-0.345D-01 0.579D-03 0.103D+01
 Coeff:      0.174D-02-0.584D-03-0.345D-01 0.579D-03 0.103D+01
 Gap=     0.414 Goal=   None    Shift=    0.000
 RMSDP=2.14D-09 MaxDP=2.04D-08 DE=-2.27D-13 OVMax= 2.51D-08

 SCF Done:  E(RLC-wHPBE) =  -74.8338179724     A.U. after   10 cycles
            NFock= 10  Conv=0.21D-08     -V/T= 2.0044
 KE= 7.450267992895D+01 PE=-1.843720635419D+02 EE= 2.774039702568D+01
 Leave Link  502 at Wed Aug 10 17:04:02 2022, MaxMem=  6442450944 cpu:               8.8 elap:               0.6
 (Enter /mnt/gpfs3_amd/share/apps/amd/gaussian/g16-A.03/g16/l701.exe)
 ... and contract with generalized density number  0.
 Compute integral first derivatives.
   2 Symmetry operations used in ECPInt.
 ECPInt:  NShTT=      78 NPrTT=     272 LenC2=      79 LenP2D=     265.
 LDataN:  DoStor=T MaxTD1= 5 Len=  102
 Leave Link  701 at Wed Aug 10 17:04:02 2022, MaxMem=  6442450944 cpu:               1.4 elap:               0.1
 (Enter /mnt/gpfs3_amd/share/apps/amd/gaussian/g16-A.03/g16/l702.exe)
 L702 exits ... SP integral derivatives will be done elsewhere.
 Leave Link  702 at Wed Aug 10 17:04:02 2022, MaxMem=  6442450944 cpu:               0.1 elap:               0.0
 (Enter /mnt/gpfs3_amd/share/apps/amd/gaussian/g16-A.03/g16/l703.exe)
 Integral derivatives from FoFJK, PRISM(SPDF).
 Compute integral first derivatives, UseDBF=F ICtDFT=           0.
 Calling FoFJK, ICntrl=      2127 FMM=F ISym2X=1 I1Cent= 0 IOpClX= 0 NMat=1 NMatS=1 NMatT=0.
 FoFJK:  IHMeth= 1 ICntrl=    2127 DoSepK=T KAlg= 0 I1Cent=           0 FoldK=F
 IRaf=         1 NMat=       1 IRICut=       1 DoRegI=T DoRafI=F ISym2E= 1 IDoP0=0 IntGTp=1.
 FoFCou: FMM=F IPFlag=           0 FMFlag=      100000 FMFlg1=         800
         NFxFlg=           0 DoJE=F BraDBF=F KetDBF=F FulRan=T
         wScrn=  0.000000 ICntrl=      2527 IOpCl=  0 I1Cent=           0 NGrid=           0
         NMat0=    1 NMatS0=      1 NMatT0=    0 NMatD0=    1 NMtDS0=    0 NMtDT0=    0
 Petite list used in FoFCou.
 Leave Link  703 at Wed Aug 10 17:04:03 2022, MaxMem=  6442450944 cpu:               6.0 elap:               0.4
 (Enter /mnt/gpfs3_amd/share/apps/amd/gaussian/g16-A.03/g16/l716.exe)
 Dipole        = 5.51650418D-05-1.06641921D+00 3.12000918D-32
 ***** Axes restored to original set *****
 -------------------------------------------------------------------
 Center     Atomic                   Forces (Hartrees/Bohr)
 Number     Number              X              Y              Z
 -------------------------------------------------------------------
      1        8          -0.000004580   -0.004249907   -0.000000000
      2        1           0.000408103    0.002127257    0.000000000
      3        1          -0.000403523    0.002122649   -0.000000000
 -------------------------------------------------------------------
[...]
 Leave Link  302 at Wed Aug 10 17:04:05 2022, MaxMem=  6442450944 cpu:               1.4 elap:               0.1
 (Enter /mnt/gpfs3_amd/share/apps/amd/gaussian/g16-A.03/g16/l303.exe)
 DipDrv:  MaxL=1.
 Leave Link  303 at Wed Aug 10 17:04:05 2022, MaxMem=  6442450944 cpu:               1.1 elap:               0.1
 (Enter /mnt/gpfs3_amd/share/apps/amd/gaussian/g16-A.03/g16/l401.exe)
 Initial guess from the checkpoint file:  "/scratch/rdu230/d3tales/high_throughput/runfiles//05XICU/gaussian/gas_phase/opt/opt_cation2.chk"
 B after Tr=    -0.000000    0.000000    0.000000
         Rot=    1.000000    0.000000   -0.000000   -0.000004 Ang=  -0.00 deg.
 Guess basis will be translated and rotated to current coordinates.
 JPrj=2 DoOrth=T DoCkMO=T.
 Initial guess orbital symmetries:
       Occupied  (A') (A') (A') (A')
       Virtual   (A") (A') (A') (A') (A') (A") (A') (A') (A') (A")
                 (A') (A') (A") (A') (A') (A") (A') (A") (A') (A')
 The electronic state of the initial guess is 1-A'.
 Generating alternative initial guess.
 ExpMin= 1.22D-01 ExpMax= 2.27D+03 ExpMxC= 3.41D+02 IAcc=2 IRadAn=         4 AccDes= 0.00D+00
 Harris functional with IExCor=33909 and IRadAn=       4 diagonalized for initial guess.
 HarFok:  IExCor=33909 AccDes= 0.00D+00 IRadAn=         4 IDoV= 1 UseB2=F ITyADJ=14
 ICtDFT=  3500011 ScaDFX=  1.000000  1.000000  1.000000  1.000000
 FoFCou: FMM=F IPFlag=           0 FMFlag=      100000 FMFlg1=           0
         NFxFlg=           0 DoJE=T BraDBF=F KetDBF=T FulRan=T
         wScrn=  0.000000 ICntrl=       500 IOpCl=  0 I1Cent=   200000004 NGrid=           0
         NMat0=    1 NMatS0=      1 NMatT0=    0 NMatD0=    1 NMtDS0=    0 NMtDT0=    0
 Petite list used in FoFCou.
 Harris En= -73.6590330441397    
 Leave Link  401 at Wed Aug 10 17:04:05 2022, MaxMem=  6442450944 cpu:               4.3 elap:               0.3
 (Enter /mnt/gpfs3_amd/share/apps/amd/gaussian/g16-A.03/g16/l502.exe)
 Keep R1 ints in memory in symmetry-blocked form, NReq=13884302.
 FoFCou: FMM=F IPFlag=           0 FMFlag=           0 FMFlg1=           0
         NFxFlg=           0 DoJE=F BraDBF=F KetDBF=F FulRan=T
         wScrn=  0.000000 ICntrl=       600 IOpCl=  0 I1Cent=           0 NGrid=           0
         NMat0=    1 NMatS0=    300 NMatT0=    0 NMatD0=    1 NMtDS0=    0 NMtDT0=    0
 Petite list used in FoFCou.
 Closed shell SCF:
 Using DIIS extrapolation, IDIIS=  1040.
 NGot=  6442450944 LenX=  6442423464 LenY=  6442422398
 Requested convergence on RMS density matrix=1.00D-08 within 512 cycles.
 Requested convergence on MAX density matrix=1.00D-06.
 Requested convergence on             energy=1.00D-06.
 No special actions if energy rises.
 Integral accuracy reduced to 1.0D-05 until final iterations.

 Cycle   1  Pass 0  IDiag  1:
 E= -74.8338915332850    
 DIIS: error= 1.24D-03 at cycle   1 NSaved=   1.
 NSaved= 1 IEnMin= 1 EnMin= -74.8338915332850     IErMin= 1 ErrMin= 1.24D-03
 ErrMax= 1.24D-03  0.00D+00 EMaxC= 1.00D-01 BMatC= 3.26D-05 BMatP= 3.26D-05
 IDIUse=3 WtCom= 9.88D-01 WtEn= 1.24D-02
 Coeff-Com:  0.100D+01
 Coeff-En:   0.100D+01
 Coeff:      0.100D+01
 Gap=     0.412 Goal=   None    Shift=    0.000
 GapD=    0.412 DampG=2.000 DampE=1.000 DampFc=2.0000 IDamp=-1.
 RMSDP=2.28D-04 MaxDP=1.55D-03              OVMax= 2.84D-03

 Cycle   2  Pass 0  IDiag  1:
 E= -74.8339305573895     Delta-E=       -0.000039024105 Rises=F Damp=F
 DIIS: error= 2.79D-04 at cycle   2 NSaved=   2.
 NSaved= 2 IEnMin= 2 EnMin= -74.8339305573895     IErMin= 2 ErrMin= 2.79D-04
 ErrMax= 2.79D-04  0.00D+00 EMaxC= 1.00D-01 BMatC= 1.70D-06 BMatP= 3.26D-05
 IDIUse=3 WtCom= 9.97D-01 WtEn= 2.79D-03
 Coeff-Com: -0.189D+00 0.119D+01
 Coeff-En:   0.000D+00 0.100D+01
 Coeff:     -0.189D+00 0.119D+01
 Gap=     0.412 Goal=   None    Shift=    0.000
 RMSDP=7.83D-05 MaxDP=5.55D-04 DE=-3.90D-05 OVMax= 1.09D-03

 Cycle   3  Pass 0  IDiag  1:
 E= -74.8339338425074     Delta-E=       -0.000003285118 Rises=F Damp=F
 DIIS: error= 8.01D-05 at cycle   3 NSaved=   3.
 NSaved= 3 IEnMin= 3 EnMin= -74.8339338425074     IErMin= 3 ErrMin= 8.01D-05
 ErrMax= 8.01D-05  0.00D+00 EMaxC= 1.00D-01 BMatC= 1.37D-07 BMatP= 1.70D-06
 IDIUse=1 WtCom= 1.00D+00 WtEn= 0.00D+00
 Coeff-Com: -0.539D-01 0.191D+00 0.863D+00
 Coeff:     -0.539D-01 0.191D+00 0.863D+00
 Gap=     0.412 Goal=   None    Shift=    0.000
 RMSDP=1.74D-05 MaxDP=2.02D-04 DE=-3.29D-06 OVMax= 3.02D-04

 Cycle   4  Pass 0  IDiag  1:
 E= -74.8339340703809     Delta-E=       -0.000000227874 Rises=F Damp=F
 DIIS: error= 2.63D-05 at cycle   4 NSaved=   4.
 NSaved= 4 IEnMin= 4 EnMin= -74.8339340703809     IErMin= 4 ErrMin= 2.63D-05
 ErrMax= 2.63D-05  0.00D+00 EMaxC= 1.00D-01 BMatC= 1.70D-08 BMatP= 1.37D-07
 IDIUse=1 WtCom= 1.00D+00 WtEn= 0.00D+00
 Coeff-Com:  0.251D-01-0.166D+00 0.243D-01 0.112D+01
 Coeff:      0.251D-01-0.166D+00 0.243D-01 0.112D+01
 Gap=     0.412 Goal=   None    Shift=    0.000
 RMSDP=8.28D-06 MaxDP=7.24D-05 DE=-2.28D-07 OVMax= 1.33D-04

 Initial convergence to 1.0D-05 achieved.  Increase integral accuracy.
 Cycle   5  Pass 1  IDiag  1:
 E= -74.8339364466059     Delta-E=       -0.000002376225 Rises=F Damp=F
 DIIS: error= 2.54D-06 at cycle   1 NSaved=   1.
 NSaved= 1 IEnMin= 1 EnMin= -74.8339364466059     IErMin= 1 ErrMin= 2.54D-06
 ErrMax= 2.54D-06  0.00D+00 EMaxC= 1.00D-01 BMatC= 1.95D-10 BMatP= 1.95D-10
 IDIUse=1 WtCom= 1.00D+00 WtEn= 0.00D+00
 Coeff-Com:  0.100D+01
 Coeff:      0.100D+01
 Gap=     0.412 Goal=   None    Shift=    0.000
 RMSDP=8.28D-06 MaxDP=7.24D-05 DE=-2.38D-06 OVMax= 1.09D-05

 Cycle   6  Pass 1  IDiag  1:
 E= -74.8339364469562     Delta-E=       -0.000000000350 Rises=F Damp=F
 DIIS: error= 9.15D-07 at cycle   2 NSaved=   2.
 NSaved= 2 IEnMin= 2 EnMin= -74.8339364469562     IErMin= 2 ErrMin= 9.15D-07
 ErrMax= 9.15D-07  0.00D+00 EMaxC= 1.00D-01 BMatC= 1.98D-11 BMatP= 1.95D-10
 IDIUse=1 WtCom= 1.00D+00 WtEn= 0.00D+00
 Coeff-Com: -0.139D+00 0.114D+01
 Coeff:     -0.139D+00 0.114D+01
 Gap=     0.412 Goal=   None    Shift=    0.000
 RMSDP=2.53D-07 MaxDP=2.78D-06 DE=-3.50D-10 OVMax= 3.61D-06

 Cycle   7  Pass 1  IDiag  1:
 E= -74.8339364469962     Delta-E=       -0.000000000040 Rises=F Damp=F
 DIIS: error= 3.90D-07 at cycle   3 NSaved=   3.
 NSaved= 3 IEnMin= 3 EnMin= -74.8339364469962     IErMin= 3 ErrMin= 3.90D-07
 ErrMax= 3.90D-07  0.00D+00 EMaxC= 1.00D-01 BMatC= 2.62D-12 BMatP= 1.98D-11
 IDIUse=1 WtCom= 1.00D+00 WtEn= 0.00D+00
 Coeff-Com: -0.942D-01 0.220D+00 0.874D+00
 Coeff:     -0.942D-01 0.220D+00 0.874D+00
 Gap=     0.412 Goal=   None    Shift=    0.000
 RMSDP=7.70D-08 MaxDP=1.03D-06 DE=-4.00D-11 OVMax= 1.44D-06

 Cycle   8  Pass 1  IDiag  1:
 E= -74.8339364470006     Delta-E=       -0.000000000004 Rises=F Damp=F
 DIIS: error= 8.44D-08 at cycle   4 NSaved=   4.
 NSaved= 4 IEnMin= 4 EnMin= -74.8339364470006     IErMin= 4 ErrMin= 8.44D-08
 ErrMax= 8.44D-08  0.00D+00 EMaxC= 1.00D-01 BMatC= 1.52D-13 BMatP= 2.62D-12
 IDIUse=1 WtCom= 1.00D+00 WtEn= 0.00D+00
 Coeff-Com:  0.166D-01-0.110D+00-0.120D-01 0.111D+01
 Coeff:      0.166D-01-0.110D+00-0.120D-01 0.111D+01
 Gap=     0.412 Goal=   None    Shift=    0.000
 RMSDP=2.49D-08 MaxDP=1.84D-07 DE=-4.41D-12 OVMax= 3.90D-07

 Cycle   9  Pass 1  IDiag  1:
 E= -74.8339364470011     Delta-E=       -0.000000000000 Rises=F Damp=F
 DIIS: error= 6.02D-09 at cycle   5 NSaved=   5.
 NSaved= 5 IEnMin= 5 EnMin= -74.8339364470011     IErMin= 5 ErrMin= 6.02D-09
 ErrMax= 6.02D-09  0.00D+00 EMaxC= 1.00D-01 BMatC= 1.34D-15 BMatP= 1.52D-13
 IDIUse=1 WtCom= 1.00D+00 WtEn= 0.00D+00
 Coeff-Com:  0.145D-02-0.607D-03-0.216D-01-0.770D-01 0.110D+01
 Coeff:      0.145D-02-0.607D-03-0.216D-01-0.770D-01 0.110D+01
 Gap=     0.412 Goal=   None    Shift=    0.000
 RMSDP=3.16D-09 MaxDP=2.42D-08 DE=-4.83D-13 OVMax= 4.93D-08

 SCF Done:  E(RLC-wHPBE) =  -74.8339364470     A.U. after    9 cycles
            NFock=  9  Conv=0.32D-08     -V/T= 2.0044
 KE= 7.450508917978D+01 PE=-1.844155910625D+02 EE= 2.775806426835D+01
 Leave Link  502 at Wed Aug 10 17:04:06 2022, MaxMem=  6442450944 cpu:              12.1 elap:               0.9
 (Enter /mnt/gpfs3_amd/share/apps/amd/gaussian/g16-A.03/g16/l701.exe)
 ... and contract with generalized density number  0.
 Compute integral first derivatives.
   2 Symmetry operations used in ECPInt.
 ECPInt:  NShTT=      78 NPrTT=     272 LenC2=      79 LenP2D=     265.
 LDataN:  DoStor=T MaxTD1= 5 Len=  102
 Leave Link  701 at Wed Aug 10 17:04:06 2022, MaxMem=  6442450944 cpu:               3.6 elap:               0.2
 (Enter /mnt/gpfs3_amd/share/apps/amd/gaussian/g16-A.03/g16/l702.exe)
 L702 exits ... SP integral derivatives will be done elsewhere.
 Leave Link  702 at Wed Aug 10 17:04:06 2022, MaxMem=  6442450944 cpu:               0.1 elap:               0.0
 (Enter /mnt/gpfs3_amd/share/apps/amd/gaussian/g16-A.03/g16/l703.exe)
 Integral derivatives from FoFJK, PRISM(SPDF).
 Compute integral first derivatives, UseDBF=F ICtDFT=           0.
 Calling FoFJK, ICntrl=      2127 FMM=F ISym2X=1 I1Cent= 0 IOpClX= 0 NMat=1 NMatS=1 NMatT=0.
 FoFJK:  IHMeth= 1 ICntrl=    2127 DoSepK=T KAlg= 0 I1Cent=           0 FoldK=F
 IRaf=         1 NMat=       1 IRICut=       1 DoRegI=T DoRafI=F ISym2E= 1 IDoP0=0 IntGTp=1.
 FoFCou: FMM=F IPFlag=           0 FMFlag=      100000 FMFlg1=         800
         NFxFlg=           0 DoJE=F BraDBF=F KetDBF=F FulRan=T
         wScrn=  0.000000 ICntrl=      2527 IOpCl=  0 I1Cent=           0 NGrid=           0
         NMat0=    1 NMatS0=      1 NMatT0=    0 NMatD0=    1 NMtDS0=    0 NMtDT0=    0
 Petite list used in FoFCou.
 Leave Link  703 at Wed Aug 10 17:04:07 2022, MaxMem=  6442450944 cpu:               4.7 elap:               0.3
 (Enter /mnt/gpfs3_amd/share/apps/amd/gaussian/g16-A.03/g16/l716.exe)
 Dipole        = 4.66326639D-05-1.01016222D+00 3.12071056D-32
 ***** Axes restored to original set *****
 -------------------------------------------------------------------
 Center     Atomic                   Forces (Hartrees/Bohr)
 Number     Number              X              Y              Z
 -------------------------------------------------------------------
      1        8          -0.000006742    0.000027411   -0.000000000
      2        1          -0.000037125   -0.000012037   -0.000000000
      3        1           0.000043867   -0.000015374    0.000000000
 -------------------------------------------------------------------
 Cartesian Forces:  Max     0.000043867 RMS     0.000022313
 Leave Link  716 at Wed Aug 10 17:04:07 2022, MaxMem=  6442450944 cpu:               0.1 elap:               0.0
 (Enter /mnt/gpfs3_amd/share/apps/amd/gaussian/g16-A.03/g16/l103.exe)

 GradGradGradGradGradGradGradGradGradGradGradGradGradGradGradGradGradGrad
 Berny optimization.
 Using GEDIIS/GDIIS optimizer.
 FormGI is forming the generalized inverse of G from B-inverse, IUseBI=4.
 Internal  Forces:  Max     0.000046093 RMS     0.000035573
 Search for a local minimum.
 Step number   6 out of a maximum of   20
 All quantities printed in internal units (Hartrees-Bohrs-Radians)
 RMS Force = .35573D-04 SwitMx=.10000D-02 MixMth= 2
 Mixed Optimization -- En-DIIS/RFO-DIIS
 Update second derivatives using D2CorX and points    3    4    5    6
 DE= -4.15D-05 DEPred=-3.99D-05 R= 1.04D+00
 TightC=F SS=  1.41D+00  RLast= 3.47D-02 DXNew= 1.3261D+00 1.0404D-01
 Trust test= 1.04D+00 RLast= 3.47D-02 DXMaxT set to 7.88D-01
 The second derivative matrix:
                          R1        R2        A1
           R1           0.28983
           R2          -0.19672   0.29305
           A1          -0.01119  -0.01097   0.06164
 ITU=  1  1  1  0
 Use linear search instead of GDIIS.
     Eigenvalues ---    0.05540   0.10097   0.48816
 RFO step:  Lambda=-4.72122950D-08 EMin= 5.53954353D-02
 Quartic linear search produced a step of  0.00031.
 Iteration  1 RMS(Cart)=  0.00053206 RMS(Int)=  0.00000006
 Iteration  2 RMS(Cart)=  0.00000005 RMS(Int)=  0.00000000
 ITry= 1 IFail=0 DXMaxC= 6.45D-04 DCOld= 1.00D+10 DXMaxT= 7.88D-01 DXLimC= 3.00D+00 Rises=F
 ClnCor:  largest displacement from symmetrization is 4.44D-16 for atom     2.
 Variable       Old X    -DE/DX   Delta X   Delta X   Delta X     New X
                                 (Linear)    (Quad)   (Total)
    R1        2.26282   0.00004  -0.00000   0.00049   0.00049   2.26330
    R2        2.26271   0.00005  -0.00000   0.00050   0.00050   2.26321
    A1        2.20696   0.00001   0.00001   0.00039   0.00040   2.20736
         Item               Value     Threshold  Converged?
 Maximum Force            0.000046     0.000450     YES
 RMS     Force            0.000036     0.000300     YES
 Maximum Displacement     0.000645     0.001800     YES
 RMS     Displacement     0.000532     0.001200     YES
 Predicted change in Energy=-2.360516D-08
 Optimization completed.
    -- Stationary point found.
                           ----------------------------
                           !   Optimized Parameters   !
                           ! (Angstroms and Degrees)  !
 --------------------------                            --------------------------
 ! Name  Definition              Value          Derivative Info.                !
 --------------------------------------------------------------------------------
 ! R1    R(1,2)                  1.1974         -DE/DX =    0.0                 !
 ! R2    R(1,3)                  1.1974         -DE/DX =    0.0                 !
 ! A1    A(2,1,3)              126.4495         -DE/DX =    0.0                 !
 --------------------------------------------------------------------------------
 Lowest energy point so far.  Saving SCF results.
 Largest change from initial coordinates is atom    3       0.283 Angstoms.
 GradGradGradGradGradGradGradGradGradGradGradGradGradGradGradGradGradGrad

 Leave Link  103 at Wed Aug 10 17:04:07 2022, MaxMem=  6442450944 cpu:               0.1 elap:               0.0
 (Enter /mnt/gpfs3_amd/share/apps/amd/gaussian/g16-A.03/g16/l202.exe)
                          Input orientation:                          
 ---------------------------------------------------------------------
 Center     Atomic      Atomic             Coordinates (Angstroms)
 Number     Number       Type             X           Y           Z
 ---------------------------------------------------------------------
      1          8           0       -0.000243    0.359614   -0.000000
      2          1           0       -1.068897   -0.180589   -0.000000
      3          1           0        1.069140   -0.179024    0.000000
 ---------------------------------------------------------------------
                    Distance matrix (angstroms):
                    1          2          3
     1  O    0.000000
     2  H    1.197431   0.000000
     3  H    1.197376   2.138038   0.000000
 Stoichiometry    H2O(2+)
 Framework group  CS[SG(H2O)]
 Deg. of freedom     3
 Full point group                 CS      NOp   2
 RotChk:  IX=0 Diff= 4.43D-16
 Largest Abelian subgroup         CS      NOp   2
 Largest concise Abelian subgroup C1      NOp   1
                         Standard orientation:                         
 ---------------------------------------------------------------------
 Center     Atomic      Atomic             Coordinates (Angstroms)
 Number     Number       Type             X           Y           Z
 ---------------------------------------------------------------------
      1          8           0        0.000000    0.107884    0.000000
      2          1           0        1.069019   -0.431597    0.000000
      3          1           0       -1.069019   -0.431475    0.000000
 ---------------------------------------------------------------------
 Rotational constants (GHZ):         970.2708045         219.3973313         178.9363090
 Leave Link  202 at Wed Aug 10 17:04:07 2022, MaxMem=  6442450944 cpu:               0.1 elap:               0.0
 (Enter /mnt/gpfs3_amd/share/apps/amd/gaussian/g16-A.03/g16/l601.exe)
 Copying SCF densities to generalized density rwf, IOpCl= 0 IROHF=0.

 **********************************************************************

            Population analysis using the SCF density.

 **********************************************************************

 Orbital symmetries:
       Occupied  (A') (A') (A') (A')
       Virtual   (A") (A') (A') (A') (A') (A") (A') (A') (A') (A")
                 (A') (A') (A") (A') (A') (A") (A') (A") (A') (A')
 The electronic state is 1-A'.
 Alpha  occ. eigenvalues --  -20.14593  -2.04603  -1.54401  -1.42316
 Alpha virt. eigenvalues --   -1.01123  -0.59682  -0.51752  -0.09972  -0.01670
 Alpha virt. eigenvalues --    0.19547   0.23315   0.39036   0.39518   0.67782
 Alpha virt. eigenvalues --    0.90684   0.91202   0.95736   1.22995   1.24807
 Alpha virt. eigenvalues --    1.87684   1.94997   2.00148   2.64529   2.66784
          Condensed to atoms (all electrons):
               1          2          3
     1  O    6.873687   0.207981   0.208005
     2  H    0.207981   0.148244  -0.001084
     3  H    0.208005  -0.001084   0.148265
 Mulliken charges:
               1
     1  O    0.710327
     2  H    0.644859
     3  H    0.644814
 Sum of Mulliken charges =   2.00000
 Mulliken charges with hydrogens summed into heavy atoms:
               1
     1  O    2.000000
 Electronic spatial extent (au):  <R**2>=             11.9042
 Charge=              2.0000 electrons
 Dipole moment (field-independent basis, Debye):
    X=              0.0001    Y=             -2.5676    Z=             -0.0000  Tot=              2.5676
 Quadrupole moment (field-independent basis, Debye-Ang):
   XX=              3.7724   YY=             -3.3997   ZZ=             -3.1699
   XY=             -0.0005   XZ=              0.0000   YZ=              0.0000
 Traceless Quadrupole moment (field-independent basis, Debye-Ang):
   XX=              4.7048   YY=             -2.4673   ZZ=             -2.2375
   XY=             -0.0005   XZ=              0.0000   YZ=              0.0000
 Octapole moment (field-independent basis, Debye-Ang**2):
  XXX=              0.0002  YYY=             -1.5341  ZZZ=             -0.0000  XYY=              0.0005
  XXY=             -4.0833  XXZ=             -0.0000  XZZ=              0.0000  YZZ=             -0.1485
  YYZ=             -0.0000  XYZ=             -0.0000
 Hexadecapole moment (field-independent basis, Debye-Ang**3):
 XXXX=              6.0407 YYYY=             -3.1962 ZZZZ=             -1.3719 XXXY=             -0.0006
 XXXZ=              0.0000 YYYX=             -0.0003 YYYZ=              0.0000 ZZZX=             -0.0000
 ZZZY=              0.0000 XXYY=              0.4102 XXZZ=             -1.0032 YYZZ=             -0.7932
 XXYZ=              0.0000 YYXZ=              0.0000 ZZXY=              0.0000
 N-N= 7.318501167345D+00 E-N=-1.844155911044D+02  KE= 7.450508917978D+01
 Symmetry A'   KE= 7.450508917978D+01
 Symmetry A"   KE= 1.751787374371D-69
 No NMR shielding tensors so no spin-rotation constants.
 Leave Link  601 at Wed Aug 10 17:04:07 2022, MaxMem=  6442450944 cpu:               1.3 elap:               0.1
 (Enter /mnt/gpfs3_amd/share/apps/amd/gaussian/g16-A.03/g16/l9999.exe)

 Test job not archived.
 1\1\GINC-ROME054\FOpt\RLC-wHPBE\def2SVP\H2O1(2+)\RDU230\10-Aug-2022\0\
 \#P LC-wHPBE/Def2SVP iop(3/107=0499400000, 3/108=0499400000) opt scf(m
 axcyc=512)\\H2 O1\\2,1\O,-0.000242783,0.3596137557,0.\H,-1.0688971639,
 -0.1805891814,0.\H,1.0691399469,-0.1790235744,0.\\Version=AM64L-G16Rev
 A.03\State=1-A'\HF=-74.8339364\RMSD=3.158e-09\RMSF=2.231e-05\Dipole=0.
 0006354,-1.010162,0.\Quadrupole=3.4979056,-1.8343819,-1.6635237,0.0039
 969,0.,0.\PG=CS [SG(H2O1)]\\@


 ACHIEVEMENT--  THE MAN WHO ROWS THE BOAT GENERALLY 
                DOESN'T HAVE TIME TO ROCK IT.

                   -- FROM THE BACK OF A SUGAR PACKET
 Job cpu time:       0 days  0 hours  2 minutes 59.8 seconds.
 Elapsed time:       0 days  0 hours  0 minutes 12.9 seconds.
 File lengths (MBytes):  RWF=    136 Int=      0 D2E=      0 Chk=     16 Scr=     16
 Normal termination of Gaussian 16 at Wed Aug 10 17:04:07 2022.
