 Entering Gaussian System, Link 0=/mnt/gpfs3_amd/share/apps/amd/gaussian/g16-A.03/g16/g16
 Input=/scratch/rdu230/d3tales/high_throughput/runfiles//05XICU/gaussian/gas_phase/energy/energy_anion1.com
 Output=/scratch/rdu230/d3tales/high_throughput/runfiles//05XICU/gaussian/gas_phase/energy/energy_anion1.log
 Initial command:
 /mnt/gpfs3_amd/share/apps/amd/gaussian/g16-A.03/g16/l1.exe "/scratch/rdu230/d3tales/high_throughput/runfiles/05XICU/gaussian/gas_phase/energy/Gau-1255512.inp" -scrdir="/scratch/rdu230/d3tales/high_throughput/runfiles/05XICU/gaussian/gas_phase/energy/"
 Entering Link 1 = /mnt/gpfs3_amd/share/apps/amd/gaussian/g16-A.03/g16/l1.exe PID=   1255513.
  
 Copyright (c) 1988,1990,1992,1993,1995,1998,2003,2009,2016,
            Gaussian, Inc.  All Rights Reserved.
  
 This is part of the Gaussian(R) 16 program.  It is based on
 the Gaussian(R) 09 system (copyright 2009, Gaussian, Inc.),
 the Gaussian(R) 03 system (copyright 2003, Gaussian, Inc.),
 the Gaussian(R) 98 system (copyright 1998, Gaussian, Inc.),
 the Gaussian(R) 94 system (copyright 1995, Gaussian, Inc.),
 the Gaussian 92(TM) system (copyright 1992, Gaussian, Inc.),
 the Gaussian 90(TM) system (copyright 1990, Gaussian, Inc.),
 the Gaussian 88(TM) system (copyright 1988, Gaussian, Inc.),
 the Gaussian 86(TM) system (copyright 1986, Carnegie Mellon
 University), and the Gaussian 82(TM) system (copyright 1983,
 Carnegie Mellon University). Gaussian is a federally registered
 trademark of Gaussian, Inc.
  
 This software contains proprietary and confidential information,
 including trade secrets, belonging to Gaussian, Inc.
  
 This software is provided under written license and may be
 used, copied, transmitted, or stored only in accord with that
 written license.
  
 The following legend is applicable only to US Government
 contracts under FAR:
  
                    RESTRICTED RIGHTS LEGEND
  
 Use, reproduction and disclosure by the US Government is
 subject to restrictions as set forth in subparagraphs (a)
 and (c) of the Commercial Computer Software - Restricted
 Rights clause in FAR 52.227-19.
  
 Gaussian, Inc.
 340 Quinnipiac St., Bldg. 40, Wallingford CT 06492
  
  
 ---------------------------------------------------------------
 Warning -- This program may not be used in any manner that
 competes with the business of Gaussian, Inc. or will provide
 assistance to any competitor of Gaussian, Inc.  The licensee
 of this program is prohibited from giving any competitor of
 Gaussian, Inc. access to this program.  By using this program,
 the user acknowledges that Gaussian, Inc. is engaged in the
 business of creating and licensing software in the field of
 computational chemistry and represents and warrants to the
 licensee that it is not a competitor of Gaussian, Inc. and that
 it will not use this program in any manner prohibited above.
 ---------------------------------------------------------------
  

 Cite this work as:
 Gaussian 16, Revision A.03,
 M. J. Frisch, G. W. Trucks, H. B. Schlegel, G. E. Scuseria, 
 M. A. Robb, J. R. Cheeseman, G. Scalmani, V. Barone, 
 G. A. Petersson, H. Nakatsuji, X. Li, M. Caricato, A. V. Marenich, 
 J. Bloino, B. G. Janesko, R. Gomperts, B. Mennucci, H. P. Hratchian, 
 J. V. Ortiz, A. F. Izmaylov, J. L. Sonnenberg, D. Williams-Young, 
 F. Ding, F. Lipparini, F. Egidi, J. Goings, B. Peng, A. Petrone, 
 T. Henderson, D. Ranasinghe, V. G. Zakrzewski, J. Gao, N. Rega, 
 G. Zheng, W. Liang, M. Hada, M. Ehara, K. Toyota, R. Fukuda, 
 J. Hasegawa, M. Ishida, T. Nakajima, Y. Honda, O. Kitao, H. Nakai, 
 T. Vreven, K. Throssell, J. A. Montgomery, Jr., J. E. Peralta, 
 F. Ogliaro, M. J. Bearpark, J. J. Heyd, E. N. Brothers, K. N. Kudin, 
 V. N. Staroverov, T. A. Keith, R. Kobayashi, J. Normand, 
 K. Raghavachari, A. P. Rendell, J. C. Burant, S. S. Iyengar, 
 J. Tomasi, M. Cossi, J. M. Millam, M. Klene, C. Adamo, R. Cammi, 
 J. W. Ochterski, R. L. Martin, K. Morokuma, O. Farkas, 
 J. B. Foresman, and D. J. Fox, Gaussian, Inc., Wallingford CT, 2016.
 
 ******************************************
 Gaussian 16:  AM64L-G16RevA.03 25-Dec-2016
                29-Aug-2022 
 ******************************************
 %chk=/scratch/rdu230/d3tales/high_throughput/runfiles//05XICU/gaussian/gas_phase
 /energy/energy_anion1.chk
 %mem=48GB
 %nprocshared=16
 Will use up to   16 processors via shared memory.
 -----------------------------------------------------------
 #P LC-wHPBE/Def2SVP iop(3/107=0499400000, 3/108=0499400000)
 -----------------------------------------------------------
 1/38=1,172=1/1;
 2/12=2,17=6,18=5,40=1/2;
 3/5=43,7=101,11=2,25=1,30=1,74=-71,107=499400000,108=499400000/1,2,3;
 4//1;
 5/5=2,38=5/2;
 6/7=2,8=2,9=2,10=2,28=1/1;
 99/5=1,9=1/99;
 Leave Link    1 at Mon Aug 29 16:34:11 2022, MaxMem=  6442450944 cpu:               4.8 elap:               0.3
 (Enter /mnt/gpfs3_amd/share/apps/amd/gaussian/g16-A.03/g16/l101.exe)
 -----
 H2 O1
 -----
 Symbolic Z-matrix:
 Charge = -1 Multiplicity = 2
 O                     0.        0.11765   0. 
 H                     0.75636  -0.47054   0. 
 H                    -0.75636  -0.47067   0. 
 
 ITRead=  0  0  0
 MicOpt= -1 -1 -1
 NAtoms=      3 NQM=        3 NQMF=       0 NMMI=      0 NMMIF=      0
                NMic=       0 NMicF=      0.
                    Isotopes and Nuclear Properties:
 (Nuclear quadrupole moments (NQMom) in fm**2, nuclear magnetic moments (NMagM)
  in nuclear magnetons)

  Atom         1           2           3
 IAtWgt=          16           1           1
 AtmWgt=  15.9949146   1.0078250   1.0078250
 NucSpn=           0           1           1
 AtZEff=  -0.0000000  -0.0000000  -0.0000000
 NQMom=    0.0000000   0.0000000   0.0000000
 NMagM=    0.0000000   2.7928460   2.7928460
 AtZNuc=   8.0000000   1.0000000   1.0000000
 Leave Link  101 at Mon Aug 29 16:34:11 2022, MaxMem=  6442450944 cpu:               1.0 elap:               0.1
 (Enter /mnt/gpfs3_amd/share/apps/amd/gaussian/g16-A.03/g16/l202.exe)
                          Input orientation:                          
 ---------------------------------------------------------------------
 Center     Atomic      Atomic             Coordinates (Angstroms)
 Number     Number       Type             X           Y           Z
 ---------------------------------------------------------------------
      1          8           0        0.000000    0.117652    0.000000
      2          1           0        0.756359   -0.470544    0.000000
      3          1           0       -0.756359   -0.470672    0.000000
 ---------------------------------------------------------------------
                    Distance matrix (angstroms):
                    1          2          3
     1  O    0.000000
     2  H    0.958151   0.000000
     3  H    0.958230   1.512718   0.000000
 Stoichiometry    H2O(1-,2)
 Framework group  CS[SG(H2O)]
 Deg. of freedom     3
 Full point group                 CS      NOp   2
 Largest Abelian subgroup         CS      NOp   2
 Largest concise Abelian subgroup C1      NOp   1
                         Standard orientation:                         
 ---------------------------------------------------------------------
 Center     Atomic      Atomic             Coordinates (Angstroms)
 Number     Number       Type             X           Y           Z
 ---------------------------------------------------------------------
      1          8           0        0.000000    0.117652    0.000000
      2          1           0        0.756359   -0.470544    0.000000
      3          1           0       -0.756359   -0.470672   -0.000000
 ---------------------------------------------------------------------
 Rotational constants (GHZ):         815.8472120         438.2743922         285.1118582
 Leave Link  202 at Mon Aug 29 16:34:11 2022, MaxMem=  6442450944 cpu:               0.1 elap:               0.0
 (Enter /mnt/gpfs3_amd/share/apps/amd/gaussian/g16-A.03/g16/l301.exe)
 Standard basis: def2SVP (5D, 7F)
 Ernie: Thresh=  0.10000D-02 Tol=  0.10000D-05 Strict=F.
 There are    19 symmetry adapted cartesian basis functions of A'  symmetry.
 There are     6 symmetry adapted cartesian basis functions of A"  symmetry.
 There are    18 symmetry adapted basis functions of A'  symmetry.
 There are     6 symmetry adapted basis functions of A"  symmetry.
    24 basis functions,    39 primitive gaussians,    25 cartesian basis functions
     6 alpha electrons        5 beta electrons
       nuclear repulsion energy         9.1860957510 Hartrees.
 IExCor=33909 DFT=T Ex+Corr=LC-wHPBE ExCW=0 ScaHFX=  1.000000
 ScaDFX=  1.000000  1.000000  1.000000  1.000000 ScalE2=  1.000000  1.000000
 IRadAn=      5 IRanWt=     -1 IRanGd=            0 ICorTp=0 IEmpDi=  4
 HFx  wShort=  0.000000 wLong=  0.499400 cFull=  0.000000 cShort=  0.000000 cLong=  1.000000
 DFx  wShort=  0.000000 wLong=  0.499400 cFull=  0.000000 cShort=  1.000000 cLong=  0.000000
 NAtoms=    3 NActive=    3 NUniq=    3 SFac= 1.00D+00 NAtFMM=   60 NAOKFM=F Big=F
 Integral buffers will be    131072 words long.
 Raffenetti 2 integral format.
 Two-electron integral symmetry is turned on.
 Leave Link  301 at Mon Aug 29 16:34:11 2022, MaxMem=  6442450944 cpu:               0.4 elap:               0.0
 (Enter /mnt/gpfs3_amd/share/apps/amd/gaussian/g16-A.03/g16/l302.exe)
 NPDir=0 NMtPBC=     1 NCelOv=     1 NCel=       1 NClECP=     1 NCelD=      1
         NCelK=      1 NCelE2=     1 NClLst=     1 CellRange=     0.0.
 One-electron integrals computed using PRISM.
 One-electron integral symmetry used in STVInt
   2 Symmetry operations used in ECPInt.
 ECPInt:  NShTT=      78 NPrTT=     272 LenC2=      79 LenP2D=     271.
 LDataN:  DoStor=T MaxTD1= 4 Len=   56
 NBasis=    24 RedAO= T EigKep=  3.75D-02  NBF=    18     6
 NBsUse=    24 1.00D-06 EigRej= -1.00D+00 NBFU=    18     6
 Precomputing XC quadrature grid using
 IXCGrd= 4 IRadAn=           5 IRanWt=          -1 IRanGd=           0 AccXCQ= 0.00D+00.
 Generated NRdTot=       0 NPtTot=           0 NUsed=           0 NTot=          32
 NSgBfM=    25    25    25    25    25 MxSgAt=     3 MxSgA2=     3.
 Leave Link  302 at Mon Aug 29 16:34:11 2022, MaxMem=  6442450944 cpu:               1.3 elap:               0.1
 (Enter /mnt/gpfs3_amd/share/apps/amd/gaussian/g16-A.03/g16/l303.exe)
 DipDrv:  MaxL=1.
 Leave Link  303 at Mon Aug 29 16:34:11 2022, MaxMem=  6442450944 cpu:               0.1 elap:               0.0
 (Enter /mnt/gpfs3_amd/share/apps/amd/gaussian/g16-A.03/g16/l401.exe)
 ExpMin= 1.22D-01 ExpMax= 2.27D+03 ExpMxC= 3.41D+02 IAcc=3 IRadAn=         5 AccDes= 0.00D+00
 Harris functional with IExCor=33909 and IRadAn=       5 diagonalized for initial guess.
 HarFok:  IExCor=33909 AccDes= 0.00D+00 IRadAn=         5 IDoV= 1 UseB2=F ITyADJ=14
 ICtDFT=  3500011 ScaDFX=  1.000000  1.000000  1.000000  1.000000
 FoFCou: FMM=F IPFlag=           0 FMFlag=      100000 FMFlg1=           0
         NFxFlg=           0 DoJE=T BraDBF=F KetDBF=T FulRan=T
         wScrn=  0.000000 ICntrl=       500 IOpCl=  0 I1Cent=   200000004 NGrid=           0
         NMat0=    1 NMatS0=      1 NMatT0=    0 NMatD0=    1 NMtDS0=    0 NMtDT0=    0
 Petite list used in FoFCou.
 Harris En= -73.7713423114202    
 JPrj=0 DoOrth=F DoCkMO=F.
 Initial guess orbital symmetries:
 Alpha Orbitals:
       Occupied  (A') (A') (A') (A') (A") (A')
       Virtual   (A') (A') (A') (A') (A") (A') (A') (A") (A') (A")
                 (A') (A') (A') (A") (A") (A') (A') (A')
 Beta  Orbitals:
       Occupied  (A') (A') (A') (A') (A")
       Virtual   (A') (A') (A') (A') (A') (A") (A') (A') (A") (A')
                 (A") (A') (A') (A') (A") (A") (A') (A') (A')
 The electronic state of the initial guess is 2-A'.
 Initial guess <Sx>= 0.0000 <Sy>= 0.0000 <Sz>= 0.5000 <S**2>= 0.7500 S= 0.5000
 Leave Link  401 at Mon Aug 29 16:34:11 2022, MaxMem=  6442450944 cpu:               2.1 elap:               0.1
 (Enter /mnt/gpfs3_amd/share/apps/amd/gaussian/g16-A.03/g16/l502.exe)
 Keep R1 and R2 ints in memory in symmetry-blocked form, NReq=13884302.
 FoFCou: FMM=F IPFlag=           0 FMFlag=           0 FMFlg1=           0
         NFxFlg=           0 DoJE=F BraDBF=F KetDBF=F FulRan=T
         wScrn=  0.000000 ICntrl=       600 IOpCl=  0 I1Cent=           0 NGrid=           0
         NMat0=    1 NMatS0=    300 NMatT0=    0 NMatD0=    1 NMtDS0=    0 NMtDT0=    0
 Petite list used in FoFCou.
 UHF open shell SCF:
 Using DIIS extrapolation, IDIIS=  1040.
 NGot=  6442450944 LenX=  6442399050 LenY=  6442397984
 Requested convergence on RMS density matrix=1.00D-08 within 128 cycles.
 Requested convergence on MAX density matrix=1.00D-06.
 Requested convergence on             energy=1.00D-06.
 No special actions if energy rises.
 Integral accuracy reduced to 1.0D-05 until final iterations.

 Cycle   1  Pass 0  IDiag  1:
 E= -76.1359961048347    
 DIIS: error= 4.26D-02 at cycle   1 NSaved=   1.
 NSaved= 1 IEnMin= 1 EnMin= -76.1359961048347     IErMin= 1 ErrMin= 4.26D-02
 ErrMax= 4.26D-02  0.00D+00 EMaxC= 1.00D-01 BMatC= 2.16D-01 BMatP= 2.16D-01
 IDIUse=3 WtCom= 5.74D-01 WtEn= 4.26D-01
 Coeff-Com:  0.100D+01
 Coeff-En:   0.100D+01
 Coeff:      0.100D+01
 Gap=     0.297 Goal=   None    Shift=    0.000
 Gap=     0.457 Goal=   None    Shift=    0.000
 GapD=    0.297 DampG=1.000 DampE=0.500 DampFc=0.5000 IDamp=-1.
 Damping current iteration by 5.00D-01
 RMSDP=1.93D-02 MaxDP=3.25D-01              OVMax= 1.27D-01

 Cycle   2  Pass 0  IDiag  1:
 E= -76.1574594942149     Delta-E=       -0.021463389380 Rises=F Damp=T
 DIIS: error= 7.59D-03 at cycle   2 NSaved=   2.
 NSaved= 2 IEnMin= 2 EnMin= -76.1574594942149     IErMin= 2 ErrMin= 7.59D-03
 ErrMax= 7.59D-03  0.00D+00 EMaxC= 1.00D-01 BMatC= 3.03D-03 BMatP= 2.16D-01
 IDIUse=3 WtCom= 9.24D-01 WtEn= 7.59D-02
 Coeff-Com: -0.463D-01 0.105D+01
 Coeff-En:   0.000D+00 0.100D+01
 Coeff:     -0.428D-01 0.104D+01
 Gap=     0.291 Goal=   None    Shift=    0.000
 Gap=     0.554 Goal=   None    Shift=    0.000
 RMSDP=3.22D-03 MaxDP=5.32D-02 DE=-2.15D-02 OVMax= 4.48D-02

 Cycle   3  Pass 0  IDiag  1:
 E= -76.1774427352923     Delta-E=       -0.019983241077 Rises=F Damp=F
 DIIS: error= 1.71D-03 at cycle   3 NSaved=   3.
 NSaved= 3 IEnMin= 3 EnMin= -76.1774427352923     IErMin= 3 ErrMin= 1.71D-03
 ErrMax= 1.71D-03  0.00D+00 EMaxC= 1.00D-01 BMatC= 1.97D-04 BMatP= 3.03D-03
 IDIUse=3 WtCom= 9.83D-01 WtEn= 1.71D-02
 Coeff-Com:  0.284D-01-0.218D+00 0.119D+01
 Coeff-En:   0.000D+00 0.000D+00 0.100D+01
 Coeff:      0.279D-01-0.214D+00 0.119D+01
 Gap=     0.290 Goal=   None    Shift=    0.000
 Gap=     0.561 Goal=   None    Shift=    0.000
 RMSDP=6.91D-04 MaxDP=8.48D-03 DE=-2.00D-02 OVMax= 6.39D-03

 Cycle   4  Pass 0  IDiag  1:
 E= -76.1775267425381     Delta-E=       -0.000084007246 Rises=F Damp=F
 DIIS: error= 3.60D-04 at cycle   4 NSaved=   4.
 NSaved= 4 IEnMin= 4 EnMin= -76.1775267425381     IErMin= 4 ErrMin= 3.60D-04
 ErrMax= 3.60D-04  0.00D+00 EMaxC= 1.00D-01 BMatC= 6.57D-06 BMatP= 1.97D-04
 IDIUse=3 WtCom= 9.96D-01 WtEn= 3.60D-03
 Coeff-Com: -0.320D-02 0.160D-01-0.234D+00 0.122D+01
 Coeff-En:   0.000D+00 0.000D+00 0.000D+00 0.100D+01
 Coeff:     -0.319D-02 0.160D-01-0.233D+00 0.122D+01
 Gap=     0.290 Goal=   None    Shift=    0.000
 Gap=     0.561 Goal=   None    Shift=    0.000
 RMSDP=1.35D-04 MaxDP=1.09D-03 DE=-8.40D-05 OVMax= 1.99D-03

 Cycle   5  Pass 0  IDiag  1:
 E= -76.1775313147243     Delta-E=       -0.000004572186 Rises=F Damp=F
 DIIS: error= 1.09D-04 at cycle   5 NSaved=   5.
 NSaved= 5 IEnMin= 5 EnMin= -76.1775313147243     IErMin= 5 ErrMin= 1.09D-04
 ErrMax= 1.09D-04  0.00D+00 EMaxC= 1.00D-01 BMatC= 4.19D-07 BMatP= 6.57D-06
 IDIUse=3 WtCom= 9.99D-01 WtEn= 1.09D-03
 Coeff-Com: -0.371D-03 0.310D-02 0.104D-01-0.233D+00 0.122D+01
 Coeff-En:   0.000D+00 0.000D+00 0.000D+00 0.000D+00 0.100D+01
 Coeff:     -0.371D-03 0.309D-02 0.104D-01-0.233D+00 0.122D+01
 Gap=     0.290 Goal=   None    Shift=    0.000
 Gap=     0.561 Goal=   None    Shift=    0.000
 RMSDP=3.69D-05 MaxDP=3.56D-04 DE=-4.57D-06 OVMax= 4.93D-04

 Cycle   6  Pass 0  IDiag  1:
 E= -76.1775316547713     Delta-E=       -0.000000340047 Rises=F Damp=F
 DIIS: error= 3.95D-05 at cycle   6 NSaved=   6.
 NSaved= 6 IEnMin= 6 EnMin= -76.1775316547713     IErMin= 6 ErrMin= 3.95D-05
 ErrMax= 3.95D-05  0.00D+00 EMaxC= 1.00D-01 BMatC= 5.67D-08 BMatP= 4.19D-07
 IDIUse=1 WtCom= 1.00D+00 WtEn= 0.00D+00
 Coeff-Com:  0.570D-03-0.328D-02 0.283D-01-0.842D-01-0.299D+00 0.136D+01
 Coeff:      0.570D-03-0.328D-02 0.283D-01-0.842D-01-0.299D+00 0.136D+01
 Gap=     0.290 Goal=   None    Shift=    0.000
 Gap=     0.561 Goal=   None    Shift=    0.000
 RMSDP=1.48D-05 MaxDP=1.39D-04 DE=-3.40D-07 OVMax= 1.81D-04

 Cycle   7  Pass 0  IDiag  1:
 E= -76.1775317011762     Delta-E=       -0.000000046405 Rises=F Damp=F
 DIIS: error= 6.65D-06 at cycle   7 NSaved=   7.
 NSaved= 7 IEnMin= 7 EnMin= -76.1775317011762     IErMin= 7 ErrMin= 6.65D-06
 ErrMax= 6.65D-06  0.00D+00 EMaxC= 1.00D-01 BMatC= 2.99D-09 BMatP= 5.67D-08
 IDIUse=1 WtCom= 1.00D+00 WtEn= 0.00D+00
 Coeff-Com: -0.132D-03 0.864D-03-0.986D-02 0.448D-01-0.695D-03-0.396D+00
 Coeff-Com:  0.136D+01
 Coeff:     -0.132D-03 0.864D-03-0.986D-02 0.448D-01-0.695D-03-0.396D+00
 Coeff:      0.136D+01
 Gap=     0.290 Goal=   None    Shift=    0.000
 Gap=     0.561 Goal=   None    Shift=    0.000
 RMSDP=2.79D-06 MaxDP=2.56D-05 DE=-4.64D-08 OVMax= 3.14D-05

 Initial convergence to 1.0D-05 achieved.  Increase integral accuracy.
 Cycle   8  Pass 1  IDiag  1:
 E= -76.1775320851276     Delta-E=       -0.000000383951 Rises=F Damp=F
 DIIS: error= 1.41D-06 at cycle   1 NSaved=   1.
 NSaved= 1 IEnMin= 1 EnMin= -76.1775320851276     IErMin= 1 ErrMin= 1.41D-06
 ErrMax= 1.41D-06  0.00D+00 EMaxC= 1.00D-01 BMatC= 1.67D-10 BMatP= 1.67D-10
 IDIUse=1 WtCom= 1.00D+00 WtEn= 0.00D+00
 Coeff-Com:  0.100D+01
 Coeff:      0.100D+01
 Gap=     0.290 Goal=   None    Shift=    0.000
 Gap=     0.561 Goal=   None    Shift=    0.000
 RMSDP=2.79D-06 MaxDP=2.56D-05 DE=-3.84D-07 OVMax= 5.35D-06

 Cycle   9  Pass 1  IDiag  1:
 E= -76.1775320852127     Delta-E=       -0.000000000085 Rises=F Damp=F
 DIIS: error= 8.35D-07 at cycle   2 NSaved=   2.
 NSaved= 2 IEnMin= 2 EnMin= -76.1775320852127     IErMin= 2 ErrMin= 8.35D-07
 ErrMax= 8.35D-07  0.00D+00 EMaxC= 1.00D-01 BMatC= 4.16D-11 BMatP= 1.67D-10
 IDIUse=1 WtCom= 1.00D+00 WtEn= 0.00D+00
 Coeff-Com: -0.482D-01 0.105D+01
 Coeff:     -0.482D-01 0.105D+01
 Gap=     0.290 Goal=   None    Shift=    0.000
 Gap=     0.561 Goal=   None    Shift=    0.000
 RMSDP=2.92D-07 MaxDP=3.71D-06 DE=-8.50D-11 OVMax= 3.61D-06

 Cycle  10  Pass 1  IDiag  1:
 E= -76.1775320852334     Delta-E=       -0.000000000021 Rises=F Damp=F
 DIIS: error= 4.41D-07 at cycle   3 NSaved=   3.
 NSaved= 3 IEnMin= 3 EnMin= -76.1775320852334     IErMin= 3 ErrMin= 4.41D-07
 ErrMax= 4.41D-07  0.00D+00 EMaxC= 1.00D-01 BMatC= 1.99D-11 BMatP= 4.16D-11
 IDIUse=1 WtCom= 1.00D+00 WtEn= 0.00D+00
 Coeff-Com: -0.349D+00 0.439D+00 0.910D+00
 Coeff:     -0.349D+00 0.439D+00 0.910D+00
 Gap=     0.290 Goal=   None    Shift=    0.000
 Gap=     0.561 Goal=   None    Shift=    0.000
 RMSDP=2.83D-07 MaxDP=4.51D-06 DE=-2.08D-11 OVMax= 2.10D-06

 Cycle  11  Pass 1  IDiag  1:
 E= -76.1775320852420     Delta-E=       -0.000000000009 Rises=F Damp=F
 DIIS: error= 9.87D-08 at cycle   4 NSaved=   4.
 NSaved= 4 IEnMin= 4 EnMin= -76.1775320852420     IErMin= 4 ErrMin= 9.87D-08
 ErrMax= 9.87D-08  0.00D+00 EMaxC= 1.00D-01 BMatC= 6.07D-13 BMatP= 1.99D-11
 IDIUse=1 WtCom= 1.00D+00 WtEn= 0.00D+00
 Coeff-Com:  0.461D-01-0.123D+00-0.135D+00 0.121D+01
 Coeff:      0.461D-01-0.123D+00-0.135D+00 0.121D+01
 Gap=     0.290 Goal=   None    Shift=    0.000
 Gap=     0.561 Goal=   None    Shift=    0.000
 RMSDP=1.63D-07 MaxDP=2.67D-06 DE=-8.60D-12 OVMax= 1.08D-06

 Cycle  12  Pass 1  IDiag  1:
 E= -76.1775320852428     Delta-E=       -0.000000000001 Rises=F Damp=F
 DIIS: error= 4.00D-08 at cycle   5 NSaved=   5.
 NSaved= 5 IEnMin= 5 EnMin= -76.1775320852428     IErMin= 5 ErrMin= 4.00D-08
 ErrMax= 4.00D-08  0.00D+00 EMaxC= 1.00D-01 BMatC= 1.43D-13 BMatP= 6.07D-13
 IDIUse=1 WtCom= 1.00D+00 WtEn= 0.00D+00
 Coeff-Com:  0.227D-01-0.155D-01-0.603D-01-0.263D+00 0.132D+01
 Coeff:      0.227D-01-0.155D-01-0.603D-01-0.263D+00 0.132D+01
 Gap=     0.290 Goal=   None    Shift=    0.000
 Gap=     0.561 Goal=   None    Shift=    0.000
 RMSDP=1.38D-07 MaxDP=2.28D-06 DE=-7.11D-13 OVMax= 9.32D-07

 Cycle  13  Pass 1  IDiag  1:
 E= -76.1775320852432     Delta-E=       -0.000000000000 Rises=F Damp=F
 DIIS: error= 2.98D-08 at cycle   6 NSaved=   6.
 NSaved= 6 IEnMin= 6 EnMin= -76.1775320852432     IErMin= 6 ErrMin= 2.98D-08
 ErrMax= 2.98D-08  0.00D+00 EMaxC= 1.00D-01 BMatC= 6.21D-14 BMatP= 1.43D-13
 IDIUse=1 WtCom= 1.00D+00 WtEn= 0.00D+00
 Coeff-Com: -0.287D-01 0.399D-01 0.824D-01-0.746D-01-0.111D+01 0.209D+01
 Coeff:     -0.287D-01 0.399D-01 0.824D-01-0.746D-01-0.111D+01 0.209D+01
 Gap=     0.290 Goal=   None    Shift=    0.000
 Gap=     0.561 Goal=   None    Shift=    0.000
 RMSDP=1.78D-07 MaxDP=2.94D-06 DE=-4.83D-13 OVMax= 1.20D-06

 Cycle  14  Pass 1  IDiag  1:
 E= -76.1775320852434     Delta-E=       -0.000000000000 Rises=F Damp=F
 DIIS: error= 1.67D-08 at cycle   7 NSaved=   7.
 NSaved= 7 IEnMin= 7 EnMin= -76.1775320852434     IErMin= 7 ErrMin= 1.67D-08
 ErrMax= 1.67D-08  0.00D+00 EMaxC= 1.00D-01 BMatC= 2.06D-14 BMatP= 6.21D-14
 IDIUse=1 WtCom= 1.00D+00 WtEn= 0.00D+00
 Coeff-Com:  0.247D-01-0.437D-01-0.715D-01 0.245D+00 0.700D+00-0.259D+01
 Coeff-Com:  0.274D+01
 Coeff:      0.247D-01-0.437D-01-0.715D-01 0.245D+00 0.700D+00-0.259D+01
 Coeff:      0.274D+01
 Gap=     0.290 Goal=   None    Shift=    0.000
 Gap=     0.561 Goal=   None    Shift=    0.000
 RMSDP=1.91D-07 MaxDP=3.15D-06 DE=-1.42D-13 OVMax= 1.29D-06

 Cycle  15  Pass 1  IDiag  1:
 E= -76.1775320852436     Delta-E=       -0.000000000000 Rises=F Damp=F
 DIIS: error= 3.67D-09 at cycle   8 NSaved=   8.
 NSaved= 8 IEnMin= 8 EnMin= -76.1775320852436     IErMin= 8 ErrMin= 3.67D-09
 ErrMax= 3.67D-09  0.00D+00 EMaxC= 1.00D-01 BMatC= 9.54D-16 BMatP= 2.06D-14
 IDIUse=1 WtCom= 1.00D+00 WtEn= 0.00D+00
 Coeff-Com: -0.636D-02 0.131D-01 0.176D-01-0.876D-01-0.154D+00 0.805D+00
 Coeff-Com: -0.112D+01 0.154D+01
 Coeff:     -0.636D-02 0.131D-01 0.176D-01-0.876D-01-0.154D+00 0.805D+00
 Coeff:     -0.112D+01 0.154D+01
 Gap=     0.290 Goal=   None    Shift=    0.000
 Gap=     0.561 Goal=   None    Shift=    0.000
 RMSDP=3.35D-08 MaxDP=5.50D-07 DE=-1.99D-13 OVMax= 2.26D-07

 Cycle  16  Pass 1  IDiag  1:
 E= -76.1775320852436     Delta-E=        0.000000000000 Rises=F Damp=F
 DIIS: error= 6.71D-10 at cycle   9 NSaved=   9.
 NSaved= 9 IEnMin= 8 EnMin= -76.1775320852436     IErMin= 9 ErrMin= 6.71D-10
 ErrMax= 6.71D-10  0.00D+00 EMaxC= 1.00D-01 BMatC= 2.40D-17 BMatP= 9.54D-16
 IDIUse=1 WtCom= 1.00D+00 WtEn= 0.00D+00
 Coeff-Com:  0.767D-03-0.166D-02-0.250D-02 0.140D-01 0.203D-01-0.134D+00
 Coeff-Com:  0.224D+00-0.463D+00 0.134D+01
 Coeff:      0.767D-03-0.166D-02-0.250D-02 0.140D-01 0.203D-01-0.134D+00
 Coeff:      0.224D+00-0.463D+00 0.134D+01
 Gap=     0.290 Goal=   None    Shift=    0.000
 Gap=     0.561 Goal=   None    Shift=    0.000
 RMSDP=1.54D-09 MaxDP=2.51D-08 DE= 0.00D+00 OVMax= 1.03D-08

 SCF Done:  E(ULC-wHPBE) =  -76.1775320852     A.U. after   16 cycles
            NFock= 16  Conv=0.15D-08     -V/T= 2.0002
 <Sx>= 0.0000 <Sy>= 0.0000 <Sz>= 0.5000 <S**2>= 0.7526 S= 0.5013
 <L.S>= 0.000000000000E+00
 KE= 7.616178484839D+01 PE=-2.022283398137D+02 EE= 4.070292712903D+01
 Annihilation of the first spin contaminant:
 S**2 before annihilation     0.7526,   after     0.7500
 Leave Link  502 at Mon Aug 29 16:34:12 2022, MaxMem=  6442450944 cpu:               8.7 elap:               0.6
 (Enter /mnt/gpfs3_amd/share/apps/amd/gaussian/g16-A.03/g16/l601.exe)
 Copying SCF densities to generalized density rwf, IOpCl= 1 IROHF=0.

 **********************************************************************

            Population analysis using the SCF density.

 **********************************************************************

 Orbital symmetries:
 Alpha Orbitals:
       Occupied  (A') (A') (A') (A') (A") (A')
       Virtual   (A') (A') (A') (A') (A") (A') (A') (A") (A') (A")
                 (A') (A') (A') (A") (A") (A') (A') (A')
 Beta  Orbitals:
       Occupied  (A') (A') (A') (A') (A")
       Virtual   (A') (A') (A') (A') (A') (A") (A') (A') (A") (A')
                 (A") (A') (A') (A') (A") (A") (A') (A') (A')
 The electronic state is 2-A'.
 Alpha  occ. eigenvalues --  -18.68430  -0.84495  -0.35521  -0.22399  -0.14036
 Alpha  occ. eigenvalues --    0.14399
 Alpha virt. eigenvalues --    0.43439   0.99917   1.05766   1.33806   1.35684
 Alpha virt. eigenvalues --    1.42318   1.52674   1.80563   1.85536   2.00435
 Alpha virt. eigenvalues --    2.25473   2.68714   2.72984   3.41757   3.46659
 Alpha virt. eigenvalues --    3.64843   3.95741   4.27525
  Beta  occ. eigenvalues --  -18.67944  -0.82924  -0.34708  -0.21209  -0.13405
  Beta virt. eigenvalues --    0.42734   0.49643   1.00786   1.08743   1.35165
  Beta virt. eigenvalues --    1.37109   1.43560   1.53981   1.81449   1.86405
  Beta virt. eigenvalues --    2.01267   2.26552   2.70177   2.74715   3.42984
  Beta virt. eigenvalues --    3.47132   3.66225   3.96465   4.28579
          Condensed to atoms (all electrons):
               1          2          3
     1  O    9.198560  -0.500690  -0.501006
     2  H   -0.500690   1.449657   0.452505
     3  H   -0.501006   0.452505   1.450163
          Atomic-Atomic Spin Densities.
               1          2          3
     1  O    1.564820  -0.840413  -0.840724
     2  H   -0.840413   0.909039   0.489401
     3  H   -0.840724   0.489401   0.909613
 Mulliken charges and spin densities:
               1          2
     1  O   -0.196865  -0.116317
     2  H   -0.401473   0.558026
     3  H   -0.401663   0.558290
 Sum of Mulliken charges =  -1.00000   1.00000
 Mulliken charges and spin densities with hydrogens summed into heavy atoms:
               1          2
     1  O   -1.000000   1.000000
 Electronic spatial extent (au):  <R**2>=             31.7448
 Charge=             -1.0000 electrons
 Dipole moment (field-independent basis, Debye):
    X=              0.0010    Y=              1.0205    Z=              0.0000  Tot=              1.0205
 Quadrupole moment (field-independent basis, Debye-Ang):
   XX=            -11.8285   YY=            -11.9705   ZZ=            -10.7438
   XY=             -0.0008   XZ=             -0.0000   YZ=             -0.0000
 Traceless Quadrupole moment (field-independent basis, Debye-Ang):
   XX=             -0.3142   YY=             -0.4562   ZZ=              0.7704
   XY=             -0.0008   XZ=             -0.0000   YZ=             -0.0000
 Octapole moment (field-independent basis, Debye-Ang**2):
  XXX=              0.0032  YYY=              6.6953  ZZZ=              0.0000  XYY=              0.0013
  XXY=              3.0410  XXZ=              0.0000  XZZ=              0.0008  YZZ=              1.9120
  YYZ=              0.0000  XYZ=              0.0000
 Hexadecapole moment (field-independent basis, Debye-Ang**3):
 XXXX=            -30.3421 YYYY=            -22.9053 ZZZZ=            -12.7105 XXXY=             -0.0027
 XXXZ=             -0.0000 YYYX=             -0.0024 YYYZ=             -0.0000 ZZZX=             -0.0000
 ZZZY=             -0.0000 XXYY=             -8.9980 XXZZ=             -6.9910 YYZZ=             -5.8858
 XXYZ=             -0.0000 YYXZ=             -0.0000 ZZXY=             -0.0007
 N-N= 9.186095751009D+00 E-N=-2.022283398103D+02  KE= 7.616178484839D+01
 Symmetry A'   KE= 7.166577558257D+01
 Symmetry A"   KE= 4.496009265813D+00
 Symmetry A'   SP= 1.000000000000D+00
 Symmetry A"   SP= 1.053478593423D-15
                          Isotropic Fermi Contact Couplings
        Atom                 a.u.       MegaHertz       Gauss      10(-4) cm-1
     1  O(17)              1.06771    -647.24344    -230.95255    -215.89717
     2  H(1)               0.00031       1.37679       0.49127       0.45925
     3  H(1)               0.00031       1.39566       0.49801       0.46554
 --------------------------------------------------------
       Center         ----  Spin Dipole Couplings  ----
                      3XX-RR        3YY-RR        3ZZ-RR
 --------------------------------------------------------
     1   Atom       -0.342194      0.482605     -0.140412
     2   Atom        0.057476     -0.021124     -0.036352
     3   Atom        0.057455     -0.021101     -0.036354
 --------------------------------------------------------
                        XY            XZ            YZ
 --------------------------------------------------------
     1   Atom        0.000104      0.000000     -0.000000
     2   Atom       -0.032400      0.000000     -0.000000
     3   Atom        0.032425      0.000000      0.000000
 --------------------------------------------------------


 ---------------------------------------------------------------------------------
              Anisotropic Spin Dipole Couplings in Principal Axis System
 ---------------------------------------------------------------------------------

       Atom             a.u.   MegaHertz   Gauss  10(-4) cm-1        Axes

              Baa    -0.3422    24.761     8.835     8.259  1.0000 -0.0001  0.0000
     1 O(17)  Bbb    -0.1404    10.160     3.625     3.389  0.0000  0.0000  1.0000
              Bcc     0.4826   -34.921   -12.461   -11.648  0.0001  1.0000 -0.0000
 
              Baa    -0.0364   -19.396    -6.921    -6.470  0.0000  0.0000  1.0000
     2 H(1)   Bbb    -0.0328   -17.478    -6.237    -5.830  0.3379  0.9412  0.0000
              Bcc     0.0691    36.874    13.157    12.300  0.9412 -0.3379  0.0000
 
              Baa    -0.0364   -19.397    -6.921    -6.470  0.0000  0.0000  1.0000
     3 H(1)   Bbb    -0.0328   -17.477    -6.236    -5.830 -0.3382  0.9411  0.0000
              Bcc     0.0691    36.874    13.157    12.300  0.9411  0.3382 -0.0000
 

 ---------------------------------------------------------------------------------

 No NMR shielding tensors so no spin-rotation constants.
 Leave Link  601 at Mon Aug 29 16:34:12 2022, MaxMem=  6442450944 cpu:               2.3 elap:               0.2
 (Enter /mnt/gpfs3_amd/share/apps/amd/gaussian/g16-A.03/g16/l9999.exe)

 Test job not archived.
 1\1\GINC-ROME003\SP\ULC-wHPBE\def2SVP\H2O1(1-,2)\RDU230\29-Aug-2022\0\
 \#P LC-wHPBE/Def2SVP iop(3/107=0499400000, 3/108=0499400000)\\H2 O1\\-
 1,2\O,0,0.,0.117652,0.\H,0,0.756359,-0.470544,0.\H,0,-0.756359,-0.4706
 72,0.\\Version=AM64L-G16RevA.03\State=2-A'\HF=-76.1775321\S2=0.752566\
 S2-1=0.\S2A=0.750001\RMSD=1.543e-09\Dipole=0.0004076,0.4014949,0.\Quad
 rupole=-0.2336211,-0.3391746,0.5727957,-0.0006314,0.,0.\PG=CS [SG(H2O1
 )]\\@


 TWO ROADS DIVERGED IN A WOOD, AND I--
 I TOOK THE ONE LESS TRAVELED BY,
 AND THAT HAS MADE ALL THE DIFFERENCE.

                       -- ROBERT FROST
 Job cpu time:       0 days  0 hours  0 minutes 21.1 seconds.
 Elapsed time:       0 days  0 hours  0 minutes  1.4 seconds.
 File lengths (MBytes):  RWF=    136 Int=      0 D2E=      0 Chk=     16 Scr=     16
 Normal termination of Gaussian 16 at Mon Aug 29 16:34:12 2022.
