 Entering Gaussian System, Link 0=/mnt/gpfs3_amd/share/apps/amd/gaussian/g16-A.03/g16/g16
 Input=/scratch/rdu230/d3tales/high_throughput/runfiles//05XICU/gaussian/solv_acetonitrile/opt/cation1/freq_opt_cation1.com
 Output=/scratch/rdu230/d3tales/high_throughput/runfiles//05XICU/gaussian/solv_acetonitrile/opt/cation1/freq_opt_cation1.log
 Initial command:
 /mnt/gpfs3_amd/share/apps/amd/gaussian/g16-A.03/g16/l1.exe "/scratch/rdu230/d3tales/high_throughput/runfiles/05XICU/gaussian/solv_acetonitrile/opt/cation1/Gau-1333019.inp" -scrdir="/scratch/rdu230/d3tales/high_throughput/runfiles/05XICU/gaussian/solv_acetonitrile/opt/cation1/"
 Entering Link 1 = /mnt/gpfs3_amd/share/apps/amd/gaussian/g16-A.03/g16/l1.exe PID=   1333020.
  
 Copyright (c) 1988,1990,1992,1993,1995,1998,2003,2009,2016,
            Gaussian, Inc.  All Rights Reserved.
  
 This is part of the Gaussian(R) 16 program.  It is based on
 the Gaussian(R) 09 system (copyright 2009, Gaussian, Inc.),
 the Gaussian(R) 03 system (copyright 2003, Gaussian, Inc.),
 the Gaussian(R) 98 system (copyright 1998, Gaussian, Inc.),
 the Gaussian(R) 94 system (copyright 1995, Gaussian, Inc.),
 the Gaussian 92(TM) system (copyright 1992, Gaussian, Inc.),
 the Gaussian 90(TM) system (copyright 1990, Gaussian, Inc.),
 the Gaussian 88(TM) system (copyright 1988, Gaussian, Inc.),
 the Gaussian 86(TM) system (copyright 1986, Carnegie Mellon
 University), and the Gaussian 82(TM) system (copyright 1983,
 Carnegie Mellon University). Gaussian is a federally registered
 trademark of Gaussian, Inc.
  
 This software contains proprietary and confidential information,
 including trade secrets, belonging to Gaussian, Inc.
  
 This software is provided under written license and may be
 used, copied, transmitted, or stored only in accord with that
 written license.
  
 The following legend is applicable only to US Government
 contracts under FAR:
  
                    RESTRICTED RIGHTS LEGEND
  
 Use, reproduction and disclosure by the US Government is
 subject to restrictions as set forth in subparagraphs (a)
 and (c) of the Commercial Computer Software - Restricted
 Rights clause in FAR 52.227-19.
  
 Gaussian, Inc.
 340 Quinnipiac St., Bldg. 40, Wallingford CT 06492
  
  
 ---------------------------------------------------------------
 Warning -- This program may not be used in any manner that
 competes with the business of Gaussian, Inc. or will provide
 assistance to any competitor of Gaussian, Inc.  The licensee
 of this program is prohibited from giving any competitor of
 Gaussian, Inc. access to this program.  By using this program,
 the user acknowledges that Gaussian, Inc. is engaged in the
 business of creating and licensing software in the field of
 computational chemistry and represents and warrants to the
 licensee that it is not a competitor of Gaussian, Inc. and that
 it will not use this program in any manner prohibited above.
 ---------------------------------------------------------------
  

 Cite this work as:
 Gaussian 16, Revision A.03,
 M. J. Frisch, G. W. Trucks, H. B. Schlegel, G. E. Scuseria, 
 M. A. Robb, J. R. Cheeseman, G. Scalmani, V. Barone, 
 G. A. Petersson, H. Nakatsuji, X. Li, M. Caricato, A. V. Marenich, 
 J. Bloino, B. G. Janesko, R. Gomperts, B. Mennucci, H. P. Hratchian, 
 J. V. Ortiz, A. F. Izmaylov, J. L. Sonnenberg, D. Williams-Young, 
 F. Ding, F. Lipparini, F. Egidi, J. Goings, B. Peng, A. Petrone, 
 T. Henderson, D. Ranasinghe, V. G. Zakrzewski, J. Gao, N. Rega, 
 G. Zheng, W. Liang, M. Hada, M. Ehara, K. Toyota, R. Fukuda, 
 J. Hasegawa, M. Ishida, T. Nakajima, Y. Honda, O. Kitao, H. Nakai, 
 T. Vreven, K. Throssell, J. A. Montgomery, Jr., J. E. Peralta, 
 F. Ogliaro, M. J. Bearpark, J. J. Heyd, E. N. Brothers, K. N. Kudin, 
 V. N. Staroverov, T. A. Keith, R. Kobayashi, J. Normand, 
 K. Raghavachari, A. P. Rendell, J. C. Burant, S. S. Iyengar, 
 J. Tomasi, M. Cossi, J. M. Millam, M. Klene, C. Adamo, R. Cammi, 
 J. W. Ochterski, R. L. Martin, K. Morokuma, O. Farkas, 
 J. B. Foresman, and D. J. Fox, Gaussian, Inc., Wallingford CT, 2016.
 
 ******************************************
 Gaussian 16:  AM64L-G16RevA.03 25-Dec-2016
                10-Aug-2022 
 ******************************************
 %chk=/scratch/rdu230/d3tales/high_throughput/runfiles//05XICU/gaussian/solv_acet
 onitrile/opt/cation1/freq_opt_cation1.chk
 %mem=48GB
 %nprocshared=16
 Will use up to   16 processors via shared memory.
 %oldchk=/scratch/rdu230/d3tales/high_throughput/runfiles//05XICU/gaussian/solv_a
 cetonitrile/opt/cation1/opt_cation1.chk
 Copying data from "/scratch/rdu230/d3tales/high_throughput/runfiles//05XICU/gaussian/solv_acetonitrile/opt/cation1/opt_cation1.chk" to current chk file "/scratch/rdu230/d3tales/high_throughput/runfiles//05XICU/gaussian/solv_acetonitrile/opt/cation1/freq_opt_cation1.chk"
 IOpt=  2 FromEx=T IUOpen= 4 IOptOp= 5 NList=   0 IFRang= 0 IUIn= 4 IUOut= 2.
 ----------------------------------------------------------------------
 #P LC-wHPBE/Def2SVP Geom=AllCheck Guess=TCheck SCRF=Check freq iop(3/1
 07=0499400000, 3/108=0499400000)
 ----------------------------------------------------------------------
 1/10=4,29=7,30=1,38=1,40=1/1,3;
 2/12=2,40=1/2;
 3/5=43,7=101,11=2,14=-4,25=1,30=1,70=2,71=2,74=-71,107=499400000,108=499400000,116=-2,140=1/1,2,3;
 4/5=101/1;
 5/5=2,38=6,98=1/2;
 8/6=4,10=90,11=11/1;
 11/6=1,8=1,9=11,15=111,16=1/1,2,10;
 10/6=1/2;
 6/7=2,8=2,9=2,10=2,28=1/1;
 7/8=1,10=1,25=1/1,2,3,16;
 1/10=4,30=1/3;
 99//99;
 Leave Link    1 at Wed Aug 10 17:16:46 2022, MaxMem=  6442450944 cpu:               4.6 elap:               0.3
 (Enter /mnt/gpfs3_amd/share/apps/amd/gaussian/g16-A.03/g16/l101.exe)
 Structure from the checkpoint file:  "/scratch/rdu230/d3tales/high_throughput/runfiles//05XICU/gaussian/solv_acetonitrile/opt/cation1/freq_opt_cation1.chk"
 -----
 H2 O1
 -----
 Charge =  1 Multiplicity = 2
 Redundant internal coordinates found in file.  (old form).
 O,0,-0.0015061716,0.3902300615,0.
 H,0,-0.8103886515,-0.1983247223,0.
 H,0,0.8118948231,-0.1919063393,0.
 Recover connectivity data from disk.
 ITRead=  0  0  0
 MicOpt= -1 -1 -1
 NAtoms=      3 NQM=        3 NQMF=       0 NMMI=      0 NMMIF=      0
                NMic=       0 NMicF=      0.
                    Isotopes and Nuclear Properties:
 (Nuclear quadrupole moments (NQMom) in fm**2, nuclear magnetic moments (NMagM)
  in nuclear magnetons)

  Atom         1           2           3
 IAtWgt=          16           1           1
 AtmWgt=  15.9949146   1.0078250   1.0078250
 NucSpn=           0           1           1
 AtZEff=   5.6000000   1.0000000   1.0000000
 NQMom=    0.0000000   0.0000000   0.0000000
 NMagM=    0.0000000   2.7928460   2.7928460
 AtZNuc=   8.0000000   1.0000000   1.0000000
 Leave Link  101 at Wed Aug 10 17:16:46 2022, MaxMem=  6442450944 cpu:               3.3 elap:               0.2
 (Enter /mnt/gpfs3_amd/share/apps/amd/gaussian/g16-A.03/g16/l103.exe)

 GradGradGradGradGradGradGradGradGradGradGradGradGradGradGradGradGradGrad
 Berny optimization.
 Initialization pass.
                           ----------------------------
                           !    Initial Parameters    !
                           ! (Angstroms and Degrees)  !
 --------------------------                            --------------------------
 ! Name  Definition              Value          Derivative Info.                !
 --------------------------------------------------------------------------------
 ! R1    R(1,2)                  1.0003         calculate D2E/DX2 analytically  !
 ! R2    R(1,3)                  1.0003         calculate D2E/DX2 analytically  !
 ! A1    A(2,1,3)              108.3692         calculate D2E/DX2 analytically  !
 --------------------------------------------------------------------------------
 Trust Radius=3.00D-01 FncErr=1.00D-07 GrdErr=1.00D-07 EigMax=2.50D+02 EigMin=1.00D-04
 Number of steps in this run=      2 maximum allowed number of steps=      2.
 GradGradGradGradGradGradGradGradGradGradGradGradGradGradGradGradGradGrad

 Leave Link  103 at Wed Aug 10 17:16:46 2022, MaxMem=  6442450944 cpu:               0.1 elap:               0.0
 (Enter /mnt/gpfs3_amd/share/apps/amd/gaussian/g16-A.03/g16/l202.exe)
                          Input orientation:                          
 ---------------------------------------------------------------------
 Center     Atomic      Atomic             Coordinates (Angstroms)
 Number     Number       Type             X           Y           Z
 ---------------------------------------------------------------------
      1          8           0       -0.001506    0.390230   -0.000000
      2          1           0       -0.810389   -0.198325   -0.000000
      3          1           0        0.811895   -0.191906    0.000000
 ---------------------------------------------------------------------
                    Distance matrix (angstroms):
                    1          2          3
     1  O    0.000000
     2  H    1.000344   0.000000
     3  H    1.000252   1.622296   0.000000
 Stoichiometry    H2O(1+,2)
 Framework group  CS[SG(H2O)]
 Deg. of freedom     3
 Full point group                 CS      NOp   2
 RotChk:  IX=0 Diff= 3.07D-17
 Largest Abelian subgroup         CS      NOp   2
 Largest concise Abelian subgroup C1      NOp   1
                         Standard orientation:                         
 ---------------------------------------------------------------------
 Center     Atomic      Atomic             Coordinates (Angstroms)
 Number     Number       Type             X           Y           Z
 ---------------------------------------------------------------------
      1          8           0        0.000000    0.117070    0.000000
      2          1           0        0.811148   -0.468358    0.000000
      3          1           0       -0.811148   -0.468202    0.000000
 ---------------------------------------------------------------------
 Rotational constants (GHZ):         823.9792918         381.0673696         260.5638698
 Leave Link  202 at Wed Aug 10 17:16:46 2022, MaxMem=  6442450944 cpu:               0.1 elap:               0.0
 (Enter /mnt/gpfs3_amd/share/apps/amd/gaussian/g16-A.03/g16/l301.exe)
 Standard basis: def2SVP (5D, 7F)
 Ernie: Thresh=  0.10000D-02 Tol=  0.10000D-05 Strict=F.
 There are    19 symmetry adapted cartesian basis functions of A'  symmetry.
 There are     6 symmetry adapted cartesian basis functions of A"  symmetry.
 There are    18 symmetry adapted basis functions of A'  symmetry.
 There are     6 symmetry adapted basis functions of A"  symmetry.
    24 basis functions,    39 primitive gaussians,    25 cartesian basis functions
     5 alpha electrons        4 beta electrons
       nuclear repulsion energy         8.7905045879 Hartrees.
 IExCor=33909 DFT=T Ex+Corr=LC-wHPBE ExCW=0 ScaHFX=  1.000000
 ScaDFX=  1.000000  1.000000  1.000000  1.000000 ScalE2=  1.000000  1.000000
 IRadAn=      5 IRanWt=     -1 IRanGd=            0 ICorTp=0 IEmpDi=  4
 HFx  wShort=  0.000000 wLong=  0.499400 cFull=  0.000000 cShort=  0.000000 cLong=  1.000000
 DFx  wShort=  0.000000 wLong=  0.499400 cFull=  0.000000 cShort=  1.000000 cLong=  0.000000
 NAtoms=    3 NActive=    3 NUniq=    3 SFac= 1.00D+00 NAtFMM=   60 NAOKFM=F Big=F
 Integral buffers will be    131072 words long.
 Raffenetti 2 integral format.
 Two-electron integral symmetry is turned on.
 Force inversion solution in PCM.
 ------------------------------------------------------------------------------
 Polarizable Continuum Model (PCM)
 =================================
 Model                : PCM.
 Atomic radii         : UFF (Universal Force Field).
 Polarization charges : Total charges.
 Charge compensation  : None.
 Solution method      : Matrix inversion.
 Cavity type          : Scaled VdW (van der Waals Surface) (Alpha=1.100).
 Cavity algorithm     : GePol (No added spheres)
                        Default sphere list used, NSphG=    3.
                        Lebedev-Laikov grids with approx.  5.0 points / Ang**2.
                        Smoothing algorithm: York/Karplus (Gamma=1.0000).
                        Polarization charges: spherical gaussians, with
                                              point-specific exponents (IZeta= 3).
                        Self-potential: point-specific (ISelfS= 7).
                        Self-field    : sphere-specific E.n sum rule (ISelfD= 2).
 1st derivatives      : Analytical E(r).r(x)/FMM algorithm (CHGder, D1EAlg=3).
                        Cavity 1st derivative terms included.
 2nd derivatives      : Analytical E(r).r(xy)/FMM algorithm (CHGder, D2EAlg=3).
                        Cavity 2nd derivative terms included.
 Solvent              : Acetonitrile, Eps=  35.688000 Eps(inf)=   1.806874
 ------------------------------------------------------------------------------
 Spheres list:
 ISph  on   Nord     Re0    Alpha      Xe            Ye            Ze
    1   O      1    1.7500  1.100      0.000000      0.117070     -0.000000
    2   H      2    1.4430  1.100      0.811148     -0.468358     -0.000000
    3   H      3    1.4430  1.100     -0.811148     -0.468202      0.000000
 ------------------------------------------------------------------------------
 GePol: Number of generator spheres                  =       3
 GePol: Total number of spheres                      =       3
 GePol: Number of exposed spheres                    =       3 (100.00%)
 GePol: Number of points                             =     400
 GePol: Average weight of points                     =       0.14
 GePol: Minimum weight of points                     =   0.24D-07
 GePol: Maximum weight of points                     =    0.20212
 GePol: Number of points with low weight             =      20
 GePol: Fraction of low-weight points (<1% of avg)   =       5.00%
 GePol: Cavity surface area                          =     56.623 Ang**2
 GePol: Cavity volume                                =     38.203 Ang**3
 Leave Link  301 at Wed Aug 10 17:16:46 2022, MaxMem=  6442450944 cpu:               0.6 elap:               0.1
 (Enter /mnt/gpfs3_amd/share/apps/amd/gaussian/g16-A.03/g16/l302.exe)
 NPDir=0 NMtPBC=     1 NCelOv=     1 NCel=       1 NClECP=     1 NCelD=      1
         NCelK=      1 NCelE2=     1 NClLst=     1 CellRange=     0.0.
 One-electron integrals computed using PRISM.
 One-electron integral symmetry used in STVInt
   2 Symmetry operations used in ECPInt.
 ECPInt:  NShTT=      78 NPrTT=     272 LenC2=      79 LenP2D=     271.
 LDataN:  DoStor=T MaxTD1= 4 Len=   56
 NBasis=    24 RedAO= T EigKep=  4.19D-02  NBF=    18     6
 NBsUse=    24 1.00D-06 EigRej= -1.00D+00 NBFU=    18     6
 Precomputing XC quadrature grid using
 IXCGrd= 4 IRadAn=           5 IRanWt=          -1 IRanGd=           0 AccXCQ= 0.00D+00.
 Generated NRdTot=       0 NPtTot=           0 NUsed=           0 NTot=          32
 NSgBfM=    25    25    25    25    25 MxSgAt=     3 MxSgA2=     3.
 Leave Link  302 at Wed Aug 10 17:16:46 2022, MaxMem=  6442450944 cpu:               1.9 elap:               0.1
 (Enter /mnt/gpfs3_amd/share/apps/amd/gaussian/g16-A.03/g16/l303.exe)
 DipDrv:  MaxL=1.
 Leave Link  303 at Wed Aug 10 17:16:46 2022, MaxMem=  6442450944 cpu:               0.2 elap:               0.0
 (Enter /mnt/gpfs3_amd/share/apps/amd/gaussian/g16-A.03/g16/l401.exe)
 Initial guess from the checkpoint file:  "/scratch/rdu230/d3tales/high_throughput/runfiles//05XICU/gaussian/solv_acetonitrile/opt/cation1/freq_opt_cation1.chk"
 B after Tr=    -0.000000    0.000000    0.000000
         Rot=    1.000000   -0.000000    0.000000    0.000000 Ang=   0.00 deg.
 Guess basis will be translated and rotated to current coordinates.
 JPrj=2 DoOrth=T DoCkMO=T.
 Initial guess orbital symmetries:
 Alpha Orbitals:
       Occupied  (A') (A') (A') (A") (A')
       Virtual   (A') (A') (A') (A') (A") (A') (A') (A') (A") (A')
                 (A") (A') (A') (A') (A") (A") (A') (A') (A')
 Beta  Orbitals:
       Occupied  (A') (A') (A') (A')
       Virtual   (A") (A') (A') (A') (A') (A') (A") (A') (A') (A")
                 (A') (A") (A') (A') (A') (A") (A") (A') (A') (A')
 The electronic state of the initial guess is 2-A".
 Initial guess <Sx>= 0.0000 <Sy>= 0.0000 <Sz>= 0.5000 <S**2>= 0.7524 S= 0.5012
 Leave Link  401 at Wed Aug 10 17:16:46 2022, MaxMem=  6442450944 cpu:               0.6 elap:               0.1
 (Enter /mnt/gpfs3_amd/share/apps/amd/gaussian/g16-A.03/g16/l502.exe)
 Keep R1 and R2 ints in memory in symmetry-blocked form, NReq=13884302.
 FoFCou: FMM=F IPFlag=           0 FMFlag=           0 FMFlg1=           0
         NFxFlg=           0 DoJE=F BraDBF=F KetDBF=F FulRan=T
         wScrn=  0.000000 ICntrl=       600 IOpCl=  0 I1Cent=           0 NGrid=           0
         NMat0=    1 NMatS0=    300 NMatT0=    0 NMatD0=    1 NMtDS0=    0 NMtDT0=    0
 Petite list used in FoFCou.
 UHF open shell SCF:
 Using DIIS extrapolation, IDIIS=  1040.
 NGot=  6442450944 LenX=  6442399050 LenY=  6442397984
 Requested convergence on RMS density matrix=1.00D-08 within 128 cycles.
 Requested convergence on MAX density matrix=1.00D-06.
 Requested convergence on             energy=1.00D-06.
 No special actions if energy rises.

 Cycle   1  Pass 1  IDiag  1:
 Inv3:  Mode=1 IEnd=      480000.
 Iteration    1 A*A^-1 deviation from unit magnitude is 1.55D-15 for    279.
 Iteration    1 A*A^-1 deviation from orthogonality  is 9.73D-16 for    151     96.
 Iteration    1 A^-1*A deviation from unit magnitude is 1.33D-15 for    287.
 Iteration    1 A^-1*A deviation from orthogonality  is 8.77D-16 for    366    172.
 E= -76.0020551773064    
 DIIS: error= 2.41D-09 at cycle   1 NSaved=   1.
 NSaved= 1 IEnMin= 1 EnMin= -76.0020551773064     IErMin= 1 ErrMin= 2.41D-09
 ErrMax= 2.41D-09  0.00D+00 EMaxC= 1.00D-01 BMatC= 3.13D-16 BMatP= 3.13D-16
 IDIUse=1 WtCom= 1.00D+00 WtEn= 0.00D+00
 Coeff-Com:  0.100D+01
 Coeff:      0.100D+01
 Gap=     0.835 Goal=   None    Shift=    0.000
 Gap=     0.526 Goal=   None    Shift=    0.000
 RMSDP=3.83D-10 MaxDP=4.43D-09              OVMax= 6.45D-09

 Error on total polarization charges = -0.00039
 SCF Done:  E(ULC-wHPBE) =  -76.0020551773     A.U. after    1 cycles
            NFock=  1  Conv=0.38D-09     -V/T= 2.0083
 <Sx>= 0.0000 <Sy>= 0.0000 <Sz>= 0.5000 <S**2>= 0.7524 S= 0.5012
 <L.S>= 0.000000000000E+00
 KE= 7.537983236226D+01 PE=-1.928078216240D+02 EE= 3.263542949660D+01
 Annihilation of the first spin contaminant:
 S**2 before annihilation     0.7524,   after     0.7500
 Leave Link  502 at Wed Aug 10 17:16:48 2022, MaxMem=  6442450944 cpu:              28.3 elap:               2.0
 (Enter /mnt/gpfs3_amd/share/apps/amd/gaussian/g16-A.03/g16/l801.exe)
 DoSCS=F DFT=T ScalE2(SS,OS)=  1.000000  1.000000
 Range of M.O.s used for correlation:     1    24
 NBasis=    24 NAE=     5 NBE=     4 NFC=     0 NFV=     0
 NROrb=     24 NOA=     5 NOB=     4 NVA=    19 NVB=    20
 Leave Link  801 at Wed Aug 10 17:16:48 2022, MaxMem=  6442450944 cpu:               0.2 elap:               0.0
 (Enter /mnt/gpfs3_amd/share/apps/amd/gaussian/g16-A.03/g16/l1101.exe)
 Using compressed storage, NAtomX=     3.
 Will process      4 centers per pass.
   2 Symmetry operations used in ECPInt.
 ECPInt:  NShTT=      78 NPrTT=     272 LenC2=      79 LenP2D=     271.
 LDataN:  DoStor=T MaxTD1= 5 Len=  102
 Leave Link 1101 at Wed Aug 10 17:16:48 2022, MaxMem=  6442450944 cpu:               3.8 elap:               0.3
 (Enter /mnt/gpfs3_amd/share/apps/amd/gaussian/g16-A.03/g16/l1102.exe)
 Symmetrizing basis deriv contribution to polar:
 IMax=3 JMax=2 DiffMx= 0.00D+00
 Leave Link 1102 at Wed Aug 10 17:16:49 2022, MaxMem=  6442450944 cpu:               0.7 elap:               0.1
 (Enter /mnt/gpfs3_amd/share/apps/amd/gaussian/g16-A.03/g16/l1110.exe)
 Forming Gx(P) for the SCF density, NAtomX=     3.
 Integral derivatives from FoFJK, PRISM(SPDF).
 Do as many integral derivatives as possible in FoFJK.
 G2DrvN: MDV=    6442450604.
 G2DrvN: will do     4 centers at a time, making    1 passes.
 Calling FoFCou, ICntrl=  3107 FMM=F I1Cent=   0 AccDes= 0.00D+00.
 FoFJK:  IHMeth= 1 ICntrl=    3107 DoSepK=T KAlg= 0 I1Cent=           0 FoldK=F
 IRaf=         1 NMat=       1 IRICut=       1 DoRegI=T DoRafI=F ISym2E= 1 IDoP0=0 IntGTp=1.
 FoFCou: FMM=F IPFlag=           0 FMFlag=      100000 FMFlg1=           0
         NFxFlg=           0 DoJE=F BraDBF=F KetDBF=F FulRan=T
         wScrn=  0.000000 ICntrl=      3507 IOpCl=  0 I1Cent=           0 NGrid=           0
         NMat0=    1 NMatS0=      1 NMatT0=    0 NMatD0=    1 NMtDS0=    0 NMtDT0=    0
 Petite list used in FoFCou.
 NEqPCM:  Using equilibrium solvation (IEInf=0, Eps=  35.6880, EpsInf=   1.8069)
 G2PCM: DoFxE=T DoFxN=T DoGrad=T DoDP/DQ/DG/TGxP=FFFF NFrqRd=   0 IEInf=0 SqF1=F DoCFld=F IF1Alg=4.
 GePol: Maximum number of non-zero 1st derivatives   =     274
 End of G2Drv F.D. properties file   721 does not exist.
 End of G2Drv F.D. properties file   722 does not exist.
 End of G2Drv F.D. properties file   788 does not exist.
 Leave Link 1110 at Wed Aug 10 17:16:52 2022, MaxMem=  6442450944 cpu:              49.0 elap:               3.2
 (Enter /mnt/gpfs3_amd/share/apps/amd/gaussian/g16-A.03/g16/l1002.exe)
 Minotr:  UHF open shell wavefunction.
          IDoAtm=111
 NEqPCM:  Using equilibrium solvation (IEInf=0, Eps=  35.6880, EpsInf=   1.8069)
          Direct CPHF calculation.
          Differentiating once with respect to electric field.
                with respect to dipole field.
          Differentiating once with respect to nuclear coordinates.
          Using symmetry in CPHF.
          Requested convergence is 1.0D-08 RMS, and 1.0D-07 maximum.
          Secondary convergence is 1.0D-12 RMS, and 1.0D-12 maximum.
          NewPWx=T KeepS1=F KeepF1=F KeepIn=T MapXYZ=F SortEE=F KeepMc=T.
          881 words used for storage of precomputed grid.
 Keep R1 and R2 ints in memory in symmetry-blocked form, NReq=13831010.
 FoFCou: FMM=F IPFlag=           0 FMFlag=           0 FMFlg1=           0
         NFxFlg=           0 DoJE=F BraDBF=F KetDBF=F FulRan=T
         wScrn=  0.000000 ICntrl=       600 IOpCl=  0 I1Cent=           0 NGrid=           0
         NMat0=    1 NMatS0=    300 NMatT0=    0 NMatD0=    1 NMtDS0=    0 NMtDT0=    0
 Petite list used in FoFCou.
          MDV=    6442450944 using IRadAn=       1.
          Solving linear equations simultaneously, MaxMat=       0.
          There are    12 degrees of freedom in the 1st order CPHF.  IDoFFX=6 NUNeed=     3.
      9 vectors produced by pass  0 Test12= 1.46D-15 8.33D-09 XBig12= 1.97D+00 6.47D-01.
 AX will form     9 AO Fock derivatives at one time.
      9 vectors produced by pass  1 Test12= 1.46D-15 8.33D-09 XBig12= 9.13D-02 1.34D-01.
      9 vectors produced by pass  2 Test12= 1.46D-15 8.33D-09 XBig12= 1.86D-03 1.98D-02.
      9 vectors produced by pass  3 Test12= 1.46D-15 8.33D-09 XBig12= 1.24D-05 1.32D-03.
      9 vectors produced by pass  4 Test12= 1.46D-15 8.33D-09 XBig12= 1.43D-07 1.18D-04.
      9 vectors produced by pass  5 Test12= 1.46D-15 8.33D-09 XBig12= 9.23D-10 9.22D-06.
      8 vectors produced by pass  6 Test12= 1.46D-15 8.33D-09 XBig12= 7.64D-12 8.89D-07.
      2 vectors produced by pass  7 Test12= 1.46D-15 8.33D-09 XBig12= 3.13D-14 4.94D-08.
 InvSVY:  IOpt=1 It=  1 EMax= 2.22D-16
 Solved reduced A of dimension    64 with     9 vectors.
 FullF1:  Do perturbations      1 to       3.
 Isotropic polarizability for W=    0.000000        4.14 Bohr**3.
 End of Minotr F.D. properties file   721 does not exist.
 End of Minotr F.D. properties file   722 does not exist.
 End of Minotr F.D. properties file   788 does not exist.
 Leave Link 1002 at Wed Aug 10 17:16:54 2022, MaxMem=  6442450944 cpu:              26.9 elap:               1.8
 (Enter /mnt/gpfs3_amd/share/apps/amd/gaussian/g16-A.03/g16/l601.exe)
 Copying SCF densities to generalized density rwf, IOpCl= 1 IROHF=0.

 **********************************************************************

            Population analysis using the SCF density.

 **********************************************************************

 Orbital symmetries:
 Alpha Orbitals:
       Occupied  (A') (A') (A') (A") (A')
       Virtual   (A') (A') (A') (A') (A") (A') (A') (A') (A") (A')
                 (A") (A') (A') (A') (A") (A") (A') (A') (A')
 Beta  Orbitals:
       Occupied  (A') (A') (A') (A')
       Virtual   (A") (A') (A') (A') (A') (A') (A") (A') (A') (A")
                 (A') (A") (A') (A') (A') (A") (A") (A') (A') (A')
 The electronic state is 2-A".
 Alpha  occ. eigenvalues --  -19.33524  -1.42041  -0.89683  -0.78405  -0.76200
 Alpha virt. eigenvalues --    0.07301   0.14606   0.55173   0.57299   0.83136
 Alpha virt. eigenvalues --    0.87619   0.98208   1.04646   1.29525   1.43953
 Alpha virt. eigenvalues --    1.53430   1.73200   2.11113   2.11974   2.75728
 Alpha virt. eigenvalues --    2.83482   3.01147   3.37505   3.67517
  Beta  occ. eigenvalues --  -19.30951  -1.34537  -0.87527  -0.73225
  Beta virt. eigenvalues --   -0.20630   0.08262   0.15214   0.55165   0.58296
  Beta virt. eigenvalues --    0.89331   0.92611   0.99547   1.07812   1.31650
  Beta virt. eigenvalues --    1.45476   1.55609   1.72965   2.11791   2.16848
  Beta virt. eigenvalues --    2.83689   2.91475   3.04323   3.43627   3.68960
          Condensed to atoms (all electrons):
               1          2          3
     1  O    7.038066   0.323301   0.323329
     2  H    0.323301   0.341168  -0.006853
     3  H    0.323329  -0.006853   0.341213
          Atomic-Atomic Spin Densities.
               1          2          3
     1  O    1.059815  -0.002512  -0.002509
     2  H   -0.002512  -0.025695   0.000808
     3  H   -0.002509   0.000808  -0.025694
 Mulliken charges and spin densities:
               1          2
     1  O    0.315305   1.054794
     2  H    0.342384  -0.027400
     3  H    0.342311  -0.027394
 Sum of Mulliken charges =   1.00000   1.00000
 Mulliken charges and spin densities with hydrogens summed into heavy atoms:
               1          2
     1  O    1.000000   1.000000
 APT charges:
               1
     1  O   -0.097419
     2  H    0.548732
     3  H    0.548687
 Sum of APT charges =   1.00000
 APT charges with hydrogens summed into heavy atoms:
               1
     1  O    1.000000
 Electronic spatial extent (au):  <R**2>=             14.6504
 Charge=              1.0000 electrons
 Dipole moment (field-independent basis, Debye):
    X=              0.0001    Y=             -2.3977    Z=             -0.0000  Tot=              2.3977
 Quadrupole moment (field-independent basis, Debye-Ang):
   XX=             -1.6817   YY=             -4.3485   ZZ=             -4.7212
   XY=             -0.0004   XZ=             -0.0000   YZ=              0.0000
 Traceless Quadrupole moment (field-independent basis, Debye-Ang):
   XX=              1.9021   YY=             -0.7647   ZZ=             -1.1374
   XY=             -0.0004   XZ=             -0.0000   YZ=              0.0000
 Octapole moment (field-independent basis, Debye-Ang**2):
  XXX=              0.0000  YYY=             -1.5869  ZZZ=              0.0000  XYY=              0.0004
  XXY=             -2.0568  XXZ=             -0.0000  XZZ=             -0.0000  YZZ=             -0.2620
  YYZ=             -0.0000  XYZ=              0.0000
 Hexadecapole moment (field-independent basis, Debye-Ang**3):
 XXXX=             -2.3910 YYYY=             -4.2362 ZZZZ=             -2.5836 XXXY=             -0.0002
 XXXZ=             -0.0000 YYYX=             -0.0002 YYYZ=             -0.0000 ZZZX=              0.0000
 ZZZY=             -0.0000 XXYY=             -0.6456 XXZZ=             -1.3024 YYZZ=             -1.1850
 XXYZ=              0.0000 YYXZ=             -0.0000 ZZXY=              0.0000
 N-N= 8.790504587878D+00 E-N=-1.928078216329D+02  KE= 7.537983236226D+01
 Symmetry A'   KE= 7.265671177188D+01
 Symmetry A"   KE= 2.723120590381D+00
 Symmetry A'   SP=-2.314066906844D-15
 Symmetry A"   SP= 1.000000000000D+00
  Exact polarizability:   5.531  -0.000   3.815   0.000   0.000   3.066
 Approx polarizability:   4.640  -0.000   3.310  -0.000   0.000   2.342
                          Isotropic Fermi Contact Couplings
        Atom                 a.u.       MegaHertz       Gauss      10(-4) cm-1
     1  O(17)              0.29838    -180.87644     -64.54121     -60.33389
     2  H(1)              -0.01393     -62.24329     -22.20995     -20.76213
     3  H(1)              -0.01392     -62.24081     -22.20907     -20.76130
 --------------------------------------------------------
       Center         ----  Spin Dipole Couplings  ----
                      3XX-RR        3YY-RR        3ZZ-RR
 --------------------------------------------------------
     1   Atom       -1.978880     -2.037608      4.016488
     2   Atom        0.073456     -0.027015     -0.046441
     3   Atom        0.073500     -0.027059     -0.046441
 --------------------------------------------------------
                        XY            XZ            YZ
 --------------------------------------------------------
     1   Atom       -0.000019      0.000000      0.000000
     2   Atom       -0.136896     -0.000000      0.000000
     3   Atom        0.136911      0.000000     -0.000000
 --------------------------------------------------------


 ---------------------------------------------------------------------------------
              Anisotropic Spin Dipole Couplings in Principal Axis System
 ---------------------------------------------------------------------------------

       Atom             a.u.   MegaHertz   Gauss  10(-4) cm-1        Axes

              Baa    -2.0376   147.440    52.610    49.181  0.0003  1.0000 -0.0000
     1 O(17)  Bbb    -1.9789   143.190    51.094    47.763  1.0000 -0.0003  0.0000
              Bcc     4.0165  -290.630  -103.704   -96.944  0.0000  0.0000  1.0000
 
              Baa    -0.1226   -65.415   -23.342   -21.820  0.5725  0.8199  0.0000
     2 H(1)   Bbb    -0.0464   -24.779    -8.842    -8.265  0.0000  0.0000  1.0000
              Bcc     0.1690    90.193    32.183    30.085  0.8199 -0.5725  0.0000
 
              Baa    -0.1226   -65.430   -23.347   -21.825 -0.5724  0.8200  0.0000
     3 H(1)   Bbb    -0.0464   -24.779    -8.842    -8.265  0.0000  0.0000  1.0000
              Bcc     0.1691    90.208    32.189    30.090  0.8200  0.5724  0.0000
 

 ---------------------------------------------------------------------------------

 No NMR shielding tensors so no spin-rotation constants.
 Leave Link  601 at Wed Aug 10 17:16:54 2022, MaxMem=  6442450944 cpu:               3.2 elap:               0.2
 (Enter /mnt/gpfs3_amd/share/apps/amd/gaussian/g16-A.03/g16/l701.exe)
 ... and contract with generalized density number  0.
 Compute integral second derivatives.
   2 Symmetry operations used in ECPInt.
 ECPInt:  NShTT=      78 NPrTT=     272 LenC2=      79 LenP2D=     271.
 LDataN:  DoStor=T MaxTD1= 6 Len=  172
 D2PCM: PCM CHGder 2nd derivatives, FixD1E=F FixD2E=F DoIter=F DoCFld=F I1PDM=0
 GePol: Maximum number of non-zero 2nd derivatives   =     274
 Leave Link  701 at Wed Aug 10 17:16:57 2022, MaxMem=  6442450944 cpu:              42.1 elap:               2.8
 (Enter /mnt/gpfs3_amd/share/apps/amd/gaussian/g16-A.03/g16/l702.exe)
 L702 exits ... SP integral derivatives will be done elsewhere.
 Leave Link  702 at Wed Aug 10 17:16:57 2022, MaxMem=  6442450944 cpu:               0.2 elap:               0.0
 (Enter /mnt/gpfs3_amd/share/apps/amd/gaussian/g16-A.03/g16/l703.exe)
 Integral derivatives from FoFJK, PRISM(SPDF).
 Compute integral second derivatives, UseDBF=F ICtDFT=           0.
 Calling FoFJK, ICntrl=    100127 FMM=F ISym2X=1 I1Cent= 0 IOpClX= 1 NMat=1 NMatS=1 NMatT=0.
 FoFJK:  IHMeth= 1 ICntrl=  100127 DoSepK=T KAlg= 0 I1Cent=           0 FoldK=F
 IRaf=         1 NMat=       1 IRICut=       1 DoRegI=T DoRafI=F ISym2E= 1 IDoP0=0 IntGTp=1.
 FoFCou: FMM=F IPFlag=           0 FMFlag=      100000 FMFlg1=         800
         NFxFlg=           0 DoJE=F BraDBF=F KetDBF=F FulRan=T
         wScrn=  0.000000 ICntrl=    100527 IOpCl=  0 I1Cent=           0 NGrid=           0
         NMat0=    1 NMatS0=      1 NMatT0=    0 NMatD0=    1 NMtDS0=    0 NMtDT0=    0
 Petite list used in FoFCou.
 Leave Link  703 at Wed Aug 10 17:16:58 2022, MaxMem=  6442450944 cpu:              13.3 elap:               0.9
 (Enter /mnt/gpfs3_amd/share/apps/amd/gaussian/g16-A.03/g16/l716.exe)
 Dipole        = 2.46063293D-05-9.43341317D-01-8.58158211D-33
 Polarizability= 5.53059198D+00-4.36423050D-04 3.81479371D+00
                 3.90559379D-17 1.27122843D-13 3.06615909D+00
 Full mass-weighted force constant matrix:
 Low frequencies ---   -0.0020   -0.0018    0.0004  187.6276  309.3647  397.9280
 Low frequencies --- 1499.7144 3519.5133 3541.9116
 Diagonal vibrational polarizability:
        1.3039547       2.7070303       0.0000000
 Harmonic frequencies (cm**-1), IR intensities (KM/Mole), Raman scattering
 activities (A**4/AMU), depolarization ratios for plane and unpolarized
 incident light, reduced masses (AMU), force constants (mDyne/A),
 and normal coordinates:
                      1                      2                      3
                     A'                     A'                     A'
 Frequencies --   1499.7144              3519.5132              3541.8170
 Red. masses --      1.0831                 1.0448                 1.0856
 Frc consts  --      1.4353                 7.6250                 8.0240
 IR Inten    --    186.4129               219.5920               607.6011
  Atom  AN      X      Y      Z        X      Y      Z        X      Y      Z
     1   8    -0.00  -0.07  -0.00    -0.00   0.05   0.00    -0.07  -0.00   0.00
     2   1     0.43   0.56   0.00     0.60  -0.40  -0.00     0.56  -0.40  -0.00
     3   1    -0.43   0.56   0.00    -0.57  -0.38   0.00     0.59   0.42  -0.00

 -------------------
 - Thermochemistry -
 -------------------
 Temperature   298.150 Kelvin.  Pressure   1.00000 Atm.
 Atom     1 has atomic number  8 and mass  15.99491
 Atom     2 has atomic number  1 and mass   1.00783
 Atom     3 has atomic number  1 and mass   1.00783
 Molecular mass:    18.01056 amu.
 Principal axes and moments of inertia in atomic units:
                           1         2         3
     Eigenvalues --     2.19027   4.73602   6.92629
           X            1.00000   0.00018   0.00000
           Y           -0.00018   1.00000   0.00000
           Z            0.00000  -0.00000   1.00000
 This molecule is an asymmetric top.
 Rotational symmetry number  1.
 Rotational temperatures (Kelvin)     39.54477    18.28835    12.50509
 Rotational constants (GHZ):         823.97929   381.06737   260.56387
 Zero-point vibrational energy      51206.4 (Joules/Mol)
                                   12.23863 (Kcal/Mol)
 Vibrational temperatures:   2157.75  5063.79  5095.88
          (Kelvin)
 
 Zero-point correction=                           0.019503 (Hartree/Particle)
 Thermal correction to Energy=                    0.022341
 Thermal correction to Enthalpy=                  0.023285
 Thermal correction to Gibbs Free Energy=         0.000456
 Sum of electronic and zero-point Energies=            -75.982552
 Sum of electronic and thermal Energies=               -75.979714
 Sum of electronic and thermal Enthalpies=             -75.978770
 Sum of electronic and thermal Free Energies=          -76.001599
 
                     E (Thermal)             CV                S
                      KCal/Mol        Cal/Mol-Kelvin    Cal/Mol-Kelvin
 Total                   14.019              6.037             48.048
 Electronic               0.000              0.000              1.377
 Translational            0.889              2.981             34.608
 Rotational               0.889              2.981             12.050
 Vibrational             12.242              0.075              0.012
                       Q            Log10(Q)             Ln(Q)
 Total Bot       0.616826D+00         -0.209838         -0.483169
 Total V=0       0.576952D+09          8.761139         20.173269
 Vib (Bot)       0.106988D-08         -8.970664        -20.655718
 Vib (V=0)       0.100072D+01          0.000313          0.000720
 Electronic      0.200000D+01          0.301030          0.693147
 Translational   0.300431D+07          6.477745         14.915559
 Rotational      0.959515D+02          1.982052          4.563843
 
                                                                H2 O1
                                                             IR Spectrum
 
     33                                                                        1                                                     
     55                                                                        5                                                     
     42                                                                        0                                                     
     20                                                                        0                                                     
 
     XX                                                                        X                                                     
     XX                                                                        X                                                     
     XX                                                                        X                                                     
     XX                                                                        X                                                     
     XX                                                                        X                                                     
     XX                                                                        X                                                     
     XX                                                                                                                              
     X                                                                                                                               
     X                                                                                                                               
     X                                                                                                                               
     X                                                                                                                               
     X                                                                                                                               
     X                                                                                                                               
     X                                                                                                                               
     X                                                                                                                               
     X                                                                                                                               
     X                                                                                                                               
     X                                                                                                                               
     X                                                                                                                               
     X                                                                                                                               
 
 ***** Axes restored to original set *****
 -------------------------------------------------------------------
 Center     Atomic                   Forces (Hartrees/Bohr)
 Number     Number              X              Y              Z
 -------------------------------------------------------------------
      1        8          -0.000061567   -0.000011173    0.000000000
      2        1           0.000038250    0.000027696   -0.000000000
      3        1           0.000023317   -0.000016523    0.000000000
 -------------------------------------------------------------------
 Cartesian Forces:  Max     0.000061567 RMS     0.000027813
 Force constants in Cartesian coordinates: 
                1             2             3             4             5 
      1  0.587600D+00
      2  0.652542D-03  0.383855D+00
      3  0.000000D+00  0.000000D+00  0.107265D-01
      4 -0.292224D+00 -0.172565D+00  0.000000D+00  0.316376D+00
      5 -0.208167D+00 -0.193384D+00  0.000000D+00  0.190548D+00  0.171912D+00
      6  0.000000D+00  0.000000D+00 -0.538343D-02  0.000000D+00  0.000000D+00
      7 -0.295376D+00  0.171913D+00  0.000000D+00 -0.241523D-01  0.176191D-01
      8  0.207514D+00 -0.190471D+00  0.000000D+00 -0.179824D-01  0.214720D-01
      9  0.000000D+00  0.000000D+00 -0.534303D-02  0.000000D+00  0.000000D+00
                6             7             8             9 
      6  0.452701D-02
      7  0.000000D+00  0.319528D+00
      8  0.000000D+00 -0.189532D+00  0.168999D+00
      9  0.856413D-03  0.000000D+00  0.000000D+00  0.448662D-02
 FormGI is forming the generalized inverse of G from B-inverse, IUseBI=4.
 Force constants in internal coordinates: 
                1             2             3 
      1  0.449102D+00
      2  0.491144D-02  0.449374D+00
      3  0.160521D-01  0.160506D-01  0.142712D+00
 Leave Link  716 at Wed Aug 10 17:16:58 2022, MaxMem=  6442450944 cpu:               0.2 elap:               0.0
 (Enter /mnt/gpfs3_amd/share/apps/amd/gaussian/g16-A.03/g16/l103.exe)

 GradGradGradGradGradGradGradGradGradGradGradGradGradGradGradGradGradGrad
 Berny optimization.
 Red2BG is reusing G-inverse.
 Internal  Forces:  Max     0.000047274 RMS     0.000031908
 Search for a local minimum.
 Step number   1 out of a maximum of    2
 All quantities printed in internal units (Hartrees-Bohrs-Radians)
 Second derivative matrix not updated -- analytic derivatives used.
 The second derivative matrix:
                          R1        R2        A1
           R1           0.44910
           R2           0.00491   0.44937
           A1           0.01605   0.01605   0.14271
 ITU=  0
     Eigenvalues ---    0.14107   0.44432   0.45580
 Angle between quadratic step and forces=   2.20 degrees.
 Linear search not attempted -- first point.
 Iteration  1 RMS(Cart)=  0.00004785 RMS(Int)=  0.00000000
 Iteration  2 RMS(Cart)=  0.00000000 RMS(Int)=  0.00000000
 ITry= 1 IFail=0 DXMaxC= 5.98D-05 DCOld= 1.00D+10 DXMaxT= 3.00D-01 DXLimC= 3.00D+00 Rises=F
 ClnCor:  largest displacement from symmetrization is 1.11D-16 for atom     2.
 Variable       Old X    -DE/DX   Delta X   Delta X   Delta X     New X
                                 (Linear)    (Quad)   (Total)
    R1        1.89038  -0.00005   0.00000  -0.00011  -0.00011   1.89027
    R2        1.89020   0.00003   0.00000   0.00006   0.00006   1.89027
    A1        1.89140   0.00000   0.00000   0.00000   0.00000   1.89140
         Item               Value     Threshold  Converged?
 Maximum Force            0.000047     0.000450     YES
 RMS     Force            0.000032     0.000300     YES
 Maximum Displacement     0.000060     0.001800     YES
 RMS     Displacement     0.000048     0.001200     YES
 Predicted change in Energy=-3.434964D-09
 Optimization completed.
    -- Stationary point found.
                           ----------------------------
                           !   Optimized Parameters   !
                           ! (Angstroms and Degrees)  !
 --------------------------                            --------------------------
 ! Name  Definition              Value          Derivative Info.                !
 --------------------------------------------------------------------------------
 ! R1    R(1,2)                  1.0003         -DE/DX =    0.0                 !
 ! R2    R(1,3)                  1.0003         -DE/DX =    0.0                 !
 ! A1    A(2,1,3)              108.3692         -DE/DX =    0.0                 !
 --------------------------------------------------------------------------------
 GradGradGradGradGradGradGradGradGradGradGradGradGradGradGradGradGradGrad

 Leave Link  103 at Wed Aug 10 17:16:58 2022, MaxMem=  6442450944 cpu:               0.1 elap:               0.0
 (Enter /mnt/gpfs3_amd/share/apps/amd/gaussian/g16-A.03/g16/l9999.exe)

 ----------------------------------------------------------------------

 Electric dipole moment (input orientation):
 (Debye = 10**-18 statcoulomb cm , SI units = C m)
                  (au)            (Debye)         (10**-30 SI)
   Tot        0.943341D+00      0.239773D+01      0.799798D+01
   x          0.361638D-02      0.919192D-02      0.306609D-01
   y         -0.943334D+00     -0.239772D+01     -0.799792D+01
   z          0.000000D+00      0.000000D+00      0.000000D+00

 Dipole polarizability, Alpha (input orientation).
 (esu units = cm**3 , SI units = C**2 m**2 J**-1)
 Alpha(0;0):
               (au)            (10**-24 esu)      (10**-40 SI)
   iso        0.413718D+01      0.613067D+00      0.682129D+00
   aniso      0.218836D+01      0.324282D+00      0.360812D+00
   xx         0.553056D+01      0.819545D+00      0.911867D+00
   yx         0.705877D-02      0.104600D-02      0.116383D-02
   yy         0.381482D+01      0.565298D+00      0.628979D+00
   zx         0.000000D+00      0.000000D+00      0.000000D+00
   zy         0.000000D+00      0.000000D+00      0.000000D+00
   zz         0.306616D+01      0.454358D+00      0.505541D+00

 ----------------------------------------------------------------------

 Dipole orientation:
     8         -0.00001924         -0.00000007         -0.73743343
     1         -1.53282684         -0.00587627          0.36890585
     1          1.53284607          0.00587634          0.36852947

 Electric dipole moment (dipole orientation):
 (Debye = 10**-18 statcoulomb cm , SI units = C m)
                  (au)            (Debye)         (10**-30 SI)
   Tot        0.943341D+00      0.239773D+01      0.799798D+01
   x          0.000000D+00      0.000000D+00      0.000000D+00
   y          0.000000D+00      0.000000D+00      0.000000D+00
   z          0.943341D+00      0.239773D+01      0.799798D+01

 Dipole polarizability, Alpha (dipole orientation).
 (esu units = cm**3 , SI units = C**2 m**2 J**-1)
 Alpha(0;0):
               (au)            (10**-24 esu)      (10**-40 SI)
   iso        0.413718D+01      0.613067D+00      0.682129D+00
   aniso      0.218836D+01      0.324282D+00      0.360812D+00
   xx         0.553056D+01      0.819544D+00      0.911865D+00
   yx         0.944754D-02      0.139998D-02      0.155769D-02
   yy         0.306620D+01      0.454363D+00      0.505547D+00
   zx        -0.481175D-03     -0.713027D-04     -0.793350D-04
   zy         0.000000D+00      0.000000D+00      0.000000D+00
   zz         0.381479D+01      0.565294D+00      0.628975D+00

 ----------------------------------------------------------------------

 Test job not archived.
 1\1\GINC-ROME092\Freq\ULC-wHPBE\def2SVP\H2O1(1+,2)\RDU230\10-Aug-2022\
 0\\#P LC-wHPBE/Def2SVP Geom=AllCheck Guess=TCheck SCRF=Check freq iop(
 3/107=0499400000, 3/108=0499400000)\\H2 O1\\1,2\O,-0.0015061716,0.3902
 300615,0.\H,-0.8103886515,-0.1983247223,0.\H,0.8118948231,-0.191906339
 3,0.\\Version=AM64L-G16RevA.03\State=2-A"\HF=-76.0020552\S2=0.752433\S
 2-1=0.\S2A=0.750003\RMSD=3.827e-10\RMSF=2.781e-05\ZeroPoint=0.0195035\
 Thermal=0.022341\Dipole=0.0036164,-0.9433344,0.\DipoleDeriv=-0.2830892
 ,-0.0013121,0.,-0.0012733,0.0432508,0.,0.,0.,-0.0524184,0.6408827,0.09
 46054,0.,0.083656,0.4790971,0.,0.,0.,0.5262169,0.6422065,-0.0932933,0.
 ,-0.0823827,0.4776521,0.,0.,0.,0.5262015\Polar=5.5305631,0.0070588,3.8
 148226,0.,0.,3.0661591\Quadrupole=1.4141451,-0.5684903,-0.8456548,0.00
 79562,0.,0.\PG=CS [SG(H2O1)]\NImag=0\\0.58760007,0.00065254,0.38385484
 ,0.,0.,0.01072646,-0.29222423,-0.17256548,0.,0.31637650,-0.20816692,-0
 .19338351,0.,0.19054786,0.17191152,0.,0.,-0.00538343,0.,0.,0.00452701,
 -0.29537584,0.17191294,0.,-0.02415226,0.01761906,0.,0.31952810,0.20751
 438,-0.19047134,0.,-0.01798238,0.02147199,0.,-0.18953200,0.16899935,0.
 ,0.,-0.00534303,0.,0.,0.00085641,0.,0.,0.00448662\\0.00006157,0.000011
 17,0.,-0.00003825,-0.00002770,0.,-0.00002332,0.00001652,0.\\\@


 AN AIRPLANE IS A COLLECTION OF SPARE PARTS
 FLYING IN CLOSE FORMATION.
 Job cpu time:       0 days  0 hours  2 minutes 59.8 seconds.
 Elapsed time:       0 days  0 hours  0 minutes 12.1 seconds.
 File lengths (MBytes):  RWF=    136 Int=      0 D2E=      0 Chk=     16 Scr=     16
 Normal termination of Gaussian 16 at Wed Aug 10 17:16:58 2022.
