 Entering Gaussian System, Link 0=/mnt/gpfs3_amd/share/apps/amd/gaussian/g16-A.03/g16/g16
 Input=/scratch/rdu230/d3tales/high_throughput/runfiles//05XICU/gaussian/solv_acetonitrile/opt/groundState/freq_opt_groundState.com
 Output=/scratch/rdu230/d3tales/high_throughput/runfiles//05XICU/gaussian/solv_acetonitrile/opt/groundState/freq_opt_groundState.log
 Initial command:
 /mnt/gpfs3_amd/share/apps/amd/gaussian/g16-A.03/g16/l1.exe "/scratch/rdu230/d3tales/high_throughput/runfiles/05XICU/gaussian/solv_acetonitrile/opt/groundState/Gau-1331827.inp" -scrdir="/scratch/rdu230/d3tales/high_throughput/runfiles/05XICU/gaussian/solv_acetonitrile/opt/groundState/"
 Entering Link 1 = /mnt/gpfs3_amd/share/apps/amd/gaussian/g16-A.03/g16/l1.exe PID=   1331828.
  
 Copyright (c) 1988,1990,1992,1993,1995,1998,2003,2009,2016,
            Gaussian, Inc.  All Rights Reserved.
  
 This is part of the Gaussian(R) 16 program.  It is based on
 the Gaussian(R) 09 system (copyright 2009, Gaussian, Inc.),
 the Gaussian(R) 03 system (copyright 2003, Gaussian, Inc.),
 the Gaussian(R) 98 system (copyright 1998, Gaussian, Inc.),
 the Gaussian(R) 94 system (copyright 1995, Gaussian, Inc.),
 the Gaussian 92(TM) system (copyright 1992, Gaussian, Inc.),
 the Gaussian 90(TM) system (copyright 1990, Gaussian, Inc.),
 the Gaussian 88(TM) system (copyright 1988, Gaussian, Inc.),
 the Gaussian 86(TM) system (copyright 1986, Carnegie Mellon
 University), and the Gaussian 82(TM) system (copyright 1983,
 Carnegie Mellon University). Gaussian is a federally registered
 trademark of Gaussian, Inc.
  
 This software contains proprietary and confidential information,
 including trade secrets, belonging to Gaussian, Inc.
  
 This software is provided under written license and may be
 used, copied, transmitted, or stored only in accord with that
 written license.
  
 The following legend is applicable only to US Government
 contracts under FAR:
  
                    RESTRICTED RIGHTS LEGEND
  
 Use, reproduction and disclosure by the US Government is
 subject to restrictions as set forth in subparagraphs (a)
 and (c) of the Commercial Computer Software - Restricted
 Rights clause in FAR 52.227-19.
  
 Gaussian, Inc.
 340 Quinnipiac St., Bldg. 40, Wallingford CT 06492
  
  
 ---------------------------------------------------------------
 Warning -- This program may not be used in any manner that
 competes with the business of Gaussian, Inc. or will provide
 assistance to any competitor of Gaussian, Inc.  The licensee
 of this program is prohibited from giving any competitor of
 Gaussian, Inc. access to this program.  By using this program,
 the user acknowledges that Gaussian, Inc. is engaged in the
 business of creating and licensing software in the field of
 computational chemistry and represents and warrants to the
 licensee that it is not a competitor of Gaussian, Inc. and that
 it will not use this program in any manner prohibited above.
 ---------------------------------------------------------------
  

 Cite this work as:
 Gaussian 16, Revision A.03,
 M. J. Frisch, G. W. Trucks, H. B. Schlegel, G. E. Scuseria, 
 M. A. Robb, J. R. Cheeseman, G. Scalmani, V. Barone, 
 G. A. Petersson, H. Nakatsuji, X. Li, M. Caricato, A. V. Marenich, 
 J. Bloino, B. G. Janesko, R. Gomperts, B. Mennucci, H. P. Hratchian, 
 J. V. Ortiz, A. F. Izmaylov, J. L. Sonnenberg, D. Williams-Young, 
 F. Ding, F. Lipparini, F. Egidi, J. Goings, B. Peng, A. Petrone, 
 T. Henderson, D. Ranasinghe, V. G. Zakrzewski, J. Gao, N. Rega, 
 G. Zheng, W. Liang, M. Hada, M. Ehara, K. Toyota, R. Fukuda, 
 J. Hasegawa, M. Ishida, T. Nakajima, Y. Honda, O. Kitao, H. Nakai, 
 T. Vreven, K. Throssell, J. A. Montgomery, Jr., J. E. Peralta, 
 F. Ogliaro, M. J. Bearpark, J. J. Heyd, E. N. Brothers, K. N. Kudin, 
 V. N. Staroverov, T. A. Keith, R. Kobayashi, J. Normand, 
 K. Raghavachari, A. P. Rendell, J. C. Burant, S. S. Iyengar, 
 J. Tomasi, M. Cossi, J. M. Millam, M. Klene, C. Adamo, R. Cammi, 
 J. W. Ochterski, R. L. Martin, K. Morokuma, O. Farkas, 
 J. B. Foresman, and D. J. Fox, Gaussian, Inc., Wallingford CT, 2016.
 
 ******************************************
 Gaussian 16:  AM64L-G16RevA.03 25-Dec-2016
                10-Aug-2022 
 ******************************************
 %chk=/scratch/rdu230/d3tales/high_throughput/runfiles//05XICU/gaussian/solv_acet
 onitrile/opt/groundState/freq_opt_groundState.chk
 %mem=48GB
 %nprocshared=16
 Will use up to   16 processors via shared memory.
 %oldchk=/scratch/rdu230/d3tales/high_throughput/runfiles//05XICU/gaussian/solv_a
 cetonitrile/opt/groundState/opt_groundState.chk
 Copying data from "/scratch/rdu230/d3tales/high_throughput/runfiles//05XICU/gaussian/solv_acetonitrile/opt/groundState/opt_groundState.chk" to current chk file "/scratch/rdu230/d3tales/high_throughput/runfiles//05XICU/gaussian/solv_acetonitrile/opt/groundState/freq_opt_groundState.chk"
 IOpt=  2 FromEx=T IUOpen= 4 IOptOp= 5 NList=   0 IFRang= 0 IUIn= 4 IUOut= 2.
 ----------------------------------------------------------------------
 #P LC-wHPBE/Def2SVP Geom=AllCheck Guess=TCheck SCRF=Check freq iop(3/1
 07=0499400000, 3/108=0499400000)
 ----------------------------------------------------------------------
 1/10=4,29=7,30=1,38=1,40=1/1,3;
 2/12=2,40=1/2;
 3/5=43,7=101,11=2,14=-4,25=1,30=1,70=2,71=2,74=-71,107=499400000,108=499400000,116=-2,140=1/1,2,3;
 4/5=101/1;
 5/5=2,38=6,98=1/2;
 8/6=4,10=90,11=11/1;
 11/6=1,8=1,9=11,15=111,16=1/1,2,10;
 10/6=1/2;
 6/7=2,8=2,9=2,10=2,28=1/1;
 7/8=1,10=1,25=1/1,2,3,16;
 1/10=4,30=1/3;
 99//99;
 Leave Link    1 at Wed Aug 10 17:15:55 2022, MaxMem=  6442450944 cpu:               5.9 elap:               0.4
 (Enter /mnt/gpfs3_amd/share/apps/amd/gaussian/g16-A.03/g16/l101.exe)
 Structure from the checkpoint file:  "/scratch/rdu230/d3tales/high_throughput/runfiles//05XICU/gaussian/solv_acetonitrile/opt/groundState/freq_opt_groundState.chk"
 -----
 H2 O1
 -----
 Charge =  0 Multiplicity = 1
 Redundant internal coordinates found in file.  (old form).
 O,0,-0.0016576651,0.3957166596,0.
 H,0,-0.7536775749,-0.2009198886,0.
 H,0,0.7553352399,-0.194797771,0.
 Recover connectivity data from disk.
 ITRead=  0  0  0
 MicOpt= -1 -1 -1
 NAtoms=      3 NQM=        3 NQMF=       0 NMMI=      0 NMMIF=      0
                NMic=       0 NMicF=      0.
                    Isotopes and Nuclear Properties:
 (Nuclear quadrupole moments (NQMom) in fm**2, nuclear magnetic moments (NMagM)
  in nuclear magnetons)

  Atom         1           2           3
 IAtWgt=          16           1           1
 AtmWgt=  15.9949146   1.0078250   1.0078250
 NucSpn=           0           1           1
 AtZEff=   5.6000000   1.0000000   1.0000000
 NQMom=    0.0000000   0.0000000   0.0000000
 NMagM=    0.0000000   2.7928460   2.7928460
 AtZNuc=   8.0000000   1.0000000   1.0000000
 Leave Link  101 at Wed Aug 10 17:15:55 2022, MaxMem=  6442450944 cpu:               2.8 elap:               0.2
 (Enter /mnt/gpfs3_amd/share/apps/amd/gaussian/g16-A.03/g16/l103.exe)

 GradGradGradGradGradGradGradGradGradGradGradGradGradGradGradGradGradGrad
 Berny optimization.
 Initialization pass.
                           ----------------------------
                           !    Initial Parameters    !
                           ! (Angstroms and Degrees)  !
 --------------------------                            --------------------------
 ! Name  Definition              Value          Derivative Info.                !
 --------------------------------------------------------------------------------
 ! R1    R(1,2)                  0.96           calculate D2E/DX2 analytically  !
 ! R2    R(1,3)                  0.9601         calculate D2E/DX2 analytically  !
 ! A1    A(2,1,3)              103.6152         calculate D2E/DX2 analytically  !
 --------------------------------------------------------------------------------
 Trust Radius=3.00D-01 FncErr=1.00D-07 GrdErr=1.00D-07 EigMax=2.50D+02 EigMin=1.00D-04
 Number of steps in this run=      2 maximum allowed number of steps=      2.
 GradGradGradGradGradGradGradGradGradGradGradGradGradGradGradGradGradGrad

 Leave Link  103 at Wed Aug 10 17:15:55 2022, MaxMem=  6442450944 cpu:               0.1 elap:               0.0
 (Enter /mnt/gpfs3_amd/share/apps/amd/gaussian/g16-A.03/g16/l202.exe)
                          Input orientation:                          
 ---------------------------------------------------------------------
 Center     Atomic      Atomic             Coordinates (Angstroms)
 Number     Number       Type             X           Y           Z
 ---------------------------------------------------------------------
      1          8           0       -0.001658    0.395717   -0.000000
      2          1           0       -0.753678   -0.200920    0.000000
      3          1           0        0.755335   -0.194798   -0.000000
 ---------------------------------------------------------------------
                    Distance matrix (angstroms):
                    1          2          3
     1  O    0.000000
     2  H    0.959953   0.000000
     3  H    0.960076   1.509025   0.000000
 Stoichiometry    H2O
 Framework group  CS[SG(H2O)]
 Deg. of freedom     3
 Full point group                 CS      NOp   2
 RotChk:  IX=0 Diff= 2.47D-16
 Largest Abelian subgroup         CS      NOp   2
 Largest concise Abelian subgroup C1      NOp   1
                         Standard orientation:                         
 ---------------------------------------------------------------------
 Center     Atomic      Atomic             Coordinates (Angstroms)
 Number     Number       Type             X           Y           Z
 ---------------------------------------------------------------------
      1          8           0        0.000000    0.118716    0.000000
      2          1           0        0.754513   -0.474765    0.000000
      3          1           0       -0.754513   -0.474964   -0.000000
 ---------------------------------------------------------------------
 Rotational constants (GHZ):         801.2867137         440.4220346         284.2086159
 Leave Link  202 at Wed Aug 10 17:15:55 2022, MaxMem=  6442450944 cpu:               0.1 elap:               0.0
 (Enter /mnt/gpfs3_amd/share/apps/amd/gaussian/g16-A.03/g16/l301.exe)
 Standard basis: def2SVP (5D, 7F)
 Ernie: Thresh=  0.10000D-02 Tol=  0.10000D-05 Strict=F.
 There are    19 symmetry adapted cartesian basis functions of A'  symmetry.
 There are     6 symmetry adapted cartesian basis functions of A"  symmetry.
 There are    18 symmetry adapted basis functions of A'  symmetry.
 There are     6 symmetry adapted basis functions of A"  symmetry.
    24 basis functions,    39 primitive gaussians,    25 cartesian basis functions
     5 alpha electrons        5 beta electrons
       nuclear repulsion energy         9.1701643103 Hartrees.
 IExCor=33909 DFT=T Ex+Corr=LC-wHPBE ExCW=0 ScaHFX=  1.000000
 ScaDFX=  1.000000  1.000000  1.000000  1.000000 ScalE2=  1.000000  1.000000
 IRadAn=      5 IRanWt=     -1 IRanGd=            0 ICorTp=0 IEmpDi=  4
 HFx  wShort=  0.000000 wLong=  0.499400 cFull=  0.000000 cShort=  0.000000 cLong=  1.000000
 DFx  wShort=  0.000000 wLong=  0.499400 cFull=  0.000000 cShort=  1.000000 cLong=  0.000000
 NAtoms=    3 NActive=    3 NUniq=    3 SFac= 1.00D+00 NAtFMM=   60 NAOKFM=F Big=F
 Integral buffers will be    131072 words long.
 Raffenetti 2 integral format.
 Two-electron integral symmetry is turned on.
 Force inversion solution in PCM.
 ------------------------------------------------------------------------------
 Polarizable Continuum Model (PCM)
 =================================
 Model                : PCM.
 Atomic radii         : UFF (Universal Force Field).
 Polarization charges : Total charges.
 Charge compensation  : None.
 Solution method      : Matrix inversion.
 Cavity type          : Scaled VdW (van der Waals Surface) (Alpha=1.100).
 Cavity algorithm     : GePol (No added spheres)
                        Default sphere list used, NSphG=    3.
                        Lebedev-Laikov grids with approx.  5.0 points / Ang**2.
                        Smoothing algorithm: York/Karplus (Gamma=1.0000).
                        Polarization charges: spherical gaussians, with
                                              point-specific exponents (IZeta= 3).
                        Self-potential: point-specific (ISelfS= 7).
                        Self-field    : sphere-specific E.n sum rule (ISelfD= 2).
 1st derivatives      : Analytical E(r).r(x)/FMM algorithm (CHGder, D1EAlg=3).
                        Cavity 1st derivative terms included.
 2nd derivatives      : Analytical E(r).r(xy)/FMM algorithm (CHGder, D2EAlg=3).
                        Cavity 2nd derivative terms included.
 Solvent              : Acetonitrile, Eps=  35.688000 Eps(inf)=   1.806874
 ------------------------------------------------------------------------------
 Spheres list:
 ISph  on   Nord     Re0    Alpha      Xe            Ye            Ze
    1   O      1    1.7500  1.100      0.000000      0.118716      0.000000
    2   H      2    1.4430  1.100      0.754513     -0.474765      0.000000
    3   H      3    1.4430  1.100     -0.754513     -0.474964     -0.000000
 ------------------------------------------------------------------------------
 GePol: Number of generator spheres                  =       3
 GePol: Total number of spheres                      =       3
 GePol: Number of exposed spheres                    =       3 (100.00%)
 GePol: Number of points                             =     392
 GePol: Average weight of points                     =       0.14
 GePol: Minimum weight of points                     =   0.17D-06
 GePol: Maximum weight of points                     =    0.20212
 GePol: Number of points with low weight             =      13
 GePol: Fraction of low-weight points (<1% of avg)   =       3.32%
 GePol: Cavity surface area                          =     55.490 Ang**2
 GePol: Cavity volume                                =     37.368 Ang**3
 Leave Link  301 at Wed Aug 10 17:15:55 2022, MaxMem=  6442450944 cpu:               0.6 elap:               0.1
 (Enter /mnt/gpfs3_amd/share/apps/amd/gaussian/g16-A.03/g16/l302.exe)
 NPDir=0 NMtPBC=     1 NCelOv=     1 NCel=       1 NClECP=     1 NCelD=      1
         NCelK=      1 NCelE2=     1 NClLst=     1 CellRange=     0.0.
 One-electron integrals computed using PRISM.
 One-electron integral symmetry used in STVInt
   2 Symmetry operations used in ECPInt.
 ECPInt:  NShTT=      78 NPrTT=     272 LenC2=      79 LenP2D=     271.
 LDataN:  DoStor=T MaxTD1= 4 Len=   56
 NBasis=    24 RedAO= T EigKep=  3.75D-02  NBF=    18     6
 NBsUse=    24 1.00D-06 EigRej= -1.00D+00 NBFU=    18     6
 Precomputing XC quadrature grid using
 IXCGrd= 4 IRadAn=           5 IRanWt=          -1 IRanGd=           0 AccXCQ= 0.00D+00.
 Generated NRdTot=       0 NPtTot=           0 NUsed=           0 NTot=          32
 NSgBfM=    25    25    25    25    25 MxSgAt=     3 MxSgA2=     3.
 Leave Link  302 at Wed Aug 10 17:15:56 2022, MaxMem=  6442450944 cpu:               3.3 elap:               0.2
 (Enter /mnt/gpfs3_amd/share/apps/amd/gaussian/g16-A.03/g16/l303.exe)
 DipDrv:  MaxL=1.
 Leave Link  303 at Wed Aug 10 17:15:56 2022, MaxMem=  6442450944 cpu:               0.2 elap:               0.0
 (Enter /mnt/gpfs3_amd/share/apps/amd/gaussian/g16-A.03/g16/l401.exe)
 Initial guess from the checkpoint file:  "/scratch/rdu230/d3tales/high_throughput/runfiles//05XICU/gaussian/solv_acetonitrile/opt/groundState/freq_opt_groundState.chk"
 B after Tr=    -0.000000   -0.000000   -0.000000
         Rot=    1.000000    0.000000   -0.000000    0.000000 Ang=   0.00 deg.
 Guess basis will be translated and rotated to current coordinates.
 JPrj=2 DoOrth=T DoCkMO=T.
 Initial guess orbital symmetries:
       Occupied  (A') (A') (A') (A') (A")
       Virtual   (A') (A') (A') (A') (A') (A") (A') (A') (A") (A')
                 (A") (A') (A') (A') (A") (A") (A') (A') (A')
 The electronic state of the initial guess is 1-A'.
 Leave Link  401 at Wed Aug 10 17:15:56 2022, MaxMem=  6442450944 cpu:               0.6 elap:               0.0
 (Enter /mnt/gpfs3_amd/share/apps/amd/gaussian/g16-A.03/g16/l502.exe)
 Keep R1 ints in memory in symmetry-blocked form, NReq=13884302.
 FoFCou: FMM=F IPFlag=           0 FMFlag=           0 FMFlg1=           0
         NFxFlg=           0 DoJE=F BraDBF=F KetDBF=F FulRan=T
         wScrn=  0.000000 ICntrl=       600 IOpCl=  0 I1Cent=           0 NGrid=           0
         NMat0=    1 NMatS0=    300 NMatT0=    0 NMatD0=    1 NMtDS0=    0 NMtDT0=    0
 Petite list used in FoFCou.
 Closed shell SCF:
 Using DIIS extrapolation, IDIIS=  1040.
 NGot=  6442450944 LenX=  6442423464 LenY=  6442422398
 Requested convergence on RMS density matrix=1.00D-08 within 128 cycles.
 Requested convergence on MAX density matrix=1.00D-06.
 Requested convergence on             energy=1.00D-06.
 No special actions if energy rises.

 Cycle   1  Pass 1  IDiag  1:
 Inv3:  Mode=1 IEnd=      460992.
 Iteration    1 A*A^-1 deviation from unit magnitude is 1.33D-15 for     95.
 Iteration    1 A*A^-1 deviation from orthogonality  is 8.27D-16 for    297     95.
 Iteration    1 A^-1*A deviation from unit magnitude is 1.33D-15 for    387.
 Iteration    1 A^-1*A deviation from orthogonality  is 8.58D-16 for    200     92.
 E= -76.3342423773530    
 DIIS: error= 1.06D-09 at cycle   1 NSaved=   1.
 NSaved= 1 IEnMin= 1 EnMin= -76.3342423773530     IErMin= 1 ErrMin= 1.06D-09
 ErrMax= 1.06D-09  0.00D+00 EMaxC= 1.00D-01 BMatC= 3.76D-17 BMatP= 3.76D-17
 IDIUse=1 WtCom= 1.00D+00 WtEn= 0.00D+00
 Coeff-Com:  0.100D+01
 Coeff:      0.100D+01
 Gap=     0.617 Goal=   None    Shift=    0.000
 RMSDP=3.90D-10 MaxDP=2.93D-09              OVMax= 4.19D-09

 Error on total polarization charges =  0.00113
 SCF Done:  E(RLC-wHPBE) =  -76.3342423774     A.U. after    1 cycles
            NFock=  1  Conv=0.39D-09     -V/T= 2.0079
 KE= 7.573436087227D+01 PE=-1.988665439230D+02 EE= 3.762777636309D+01
 Leave Link  502 at Wed Aug 10 17:15:57 2022, MaxMem=  6442450944 cpu:              22.2 elap:               1.5
 (Enter /mnt/gpfs3_amd/share/apps/amd/gaussian/g16-A.03/g16/l801.exe)
 DoSCS=F DFT=T ScalE2(SS,OS)=  1.000000  1.000000
 Range of M.O.s used for correlation:     1    24
 NBasis=    24 NAE=     5 NBE=     5 NFC=     0 NFV=     0
 NROrb=     24 NOA=     5 NOB=     5 NVA=    19 NVB=    19
 Leave Link  801 at Wed Aug 10 17:15:57 2022, MaxMem=  6442450944 cpu:               0.3 elap:               0.0
 (Enter /mnt/gpfs3_amd/share/apps/amd/gaussian/g16-A.03/g16/l1101.exe)
 Using compressed storage, NAtomX=     3.
 Will process      4 centers per pass.
   2 Symmetry operations used in ECPInt.
 ECPInt:  NShTT=      78 NPrTT=     272 LenC2=      79 LenP2D=     271.
 LDataN:  DoStor=T MaxTD1= 5 Len=  102
 Leave Link 1101 at Wed Aug 10 17:15:58 2022, MaxMem=  6442450944 cpu:               3.8 elap:               0.3
 (Enter /mnt/gpfs3_amd/share/apps/amd/gaussian/g16-A.03/g16/l1102.exe)
 Symmetrizing basis deriv contribution to polar:
 IMax=3 JMax=2 DiffMx= 0.00D+00
 Leave Link 1102 at Wed Aug 10 17:15:58 2022, MaxMem=  6442450944 cpu:               1.5 elap:               0.1
 (Enter /mnt/gpfs3_amd/share/apps/amd/gaussian/g16-A.03/g16/l1110.exe)
 Forming Gx(P) for the SCF density, NAtomX=     3.
 Integral derivatives from FoFJK, PRISM(SPDF).
 Do as many integral derivatives as possible in FoFJK.
 G2DrvN: MDV=    6442450604.
 G2DrvN: will do     4 centers at a time, making    1 passes.
 Calling FoFCou, ICntrl=  3107 FMM=F I1Cent=   0 AccDes= 0.00D+00.
 FoFJK:  IHMeth= 1 ICntrl=    3107 DoSepK=T KAlg= 0 I1Cent=           0 FoldK=F
 IRaf=         1 NMat=       1 IRICut=       1 DoRegI=T DoRafI=F ISym2E= 1 IDoP0=0 IntGTp=1.
 FoFCou: FMM=F IPFlag=           0 FMFlag=      100000 FMFlg1=           0
         NFxFlg=           0 DoJE=F BraDBF=F KetDBF=F FulRan=T
         wScrn=  0.000000 ICntrl=      3507 IOpCl=  0 I1Cent=           0 NGrid=           0
         NMat0=    1 NMatS0=      1 NMatT0=    0 NMatD0=    1 NMtDS0=    0 NMtDT0=    0
 Petite list used in FoFCou.
 NEqPCM:  Using equilibrium solvation (IEInf=0, Eps=  35.6880, EpsInf=   1.8069)
 G2PCM: DoFxE=T DoFxN=T DoGrad=T DoDP/DQ/DG/TGxP=FFFF NFrqRd=   0 IEInf=0 SqF1=F DoCFld=F IF1Alg=4.
 GePol: Maximum number of non-zero 1st derivatives   =     266
 End of G2Drv F.D. properties file   721 does not exist.
 End of G2Drv F.D. properties file   722 does not exist.
 End of G2Drv F.D. properties file   788 does not exist.
 Leave Link 1110 at Wed Aug 10 17:16:03 2022, MaxMem=  6442450944 cpu:              65.6 elap:               4.5
 (Enter /mnt/gpfs3_amd/share/apps/amd/gaussian/g16-A.03/g16/l1002.exe)
 Minotr:  Closed shell wavefunction.
          IDoAtm=111
 NEqPCM:  Using equilibrium solvation (IEInf=0, Eps=  35.6880, EpsInf=   1.8069)
          Direct CPHF calculation.
          Differentiating once with respect to electric field.
                with respect to dipole field.
          Differentiating once with respect to nuclear coordinates.
          Using symmetry in CPHF.
          Requested convergence is 1.0D-08 RMS, and 1.0D-07 maximum.
          Secondary convergence is 1.0D-12 RMS, and 1.0D-12 maximum.
          NewPWx=T KeepS1=F KeepF1=F KeepIn=T MapXYZ=F SortEE=F KeepMc=T.
          874 words used for storage of precomputed grid.
 Keep R1 ints in memory in symmetry-blocked form, NReq=13830979.
 FoFCou: FMM=F IPFlag=           0 FMFlag=           0 FMFlg1=           0
         NFxFlg=           0 DoJE=F BraDBF=F KetDBF=F FulRan=T
         wScrn=  0.000000 ICntrl=       600 IOpCl=  0 I1Cent=           0 NGrid=           0
         NMat0=    1 NMatS0=    300 NMatT0=    0 NMatD0=    1 NMtDS0=    0 NMtDT0=    0
 Petite list used in FoFCou.
          MDV=    6442450944 using IRadAn=       1.
          Solving linear equations simultaneously, MaxMat=       0.
          There are    12 degrees of freedom in the 1st order CPHF.  IDoFFX=6 NUNeed=     3.
      9 vectors produced by pass  0 Test12= 7.92D-16 8.33D-09 XBig12= 1.34D+00 7.43D-01.
 AX will form     9 AO Fock derivatives at one time.
      9 vectors produced by pass  1 Test12= 7.92D-16 8.33D-09 XBig12= 1.02D-01 1.56D-01.
      9 vectors produced by pass  2 Test12= 7.92D-16 8.33D-09 XBig12= 3.74D-03 3.09D-02.
      9 vectors produced by pass  3 Test12= 7.92D-16 8.33D-09 XBig12= 1.65D-05 1.91D-03.
      9 vectors produced by pass  4 Test12= 7.92D-16 8.33D-09 XBig12= 9.09D-08 1.35D-04.
      9 vectors produced by pass  5 Test12= 7.92D-16 8.33D-09 XBig12= 2.81D-10 6.97D-06.
      3 vectors produced by pass  6 Test12= 7.92D-16 8.33D-09 XBig12= 5.77D-13 2.76D-07.
      1 vectors produced by pass  7 Test12= 7.92D-16 8.33D-09 XBig12= 8.04D-16 1.77D-08.
 InvSVY:  IOpt=1 It=  1 EMax= 2.22D-16
 Solved reduced A of dimension    58 with     9 vectors.
 FullF1:  Do perturbations      1 to       3.
 Isotropic polarizability for W=    0.000000        5.23 Bohr**3.
 End of Minotr F.D. properties file   721 does not exist.
 End of Minotr F.D. properties file   722 does not exist.
 End of Minotr F.D. properties file   788 does not exist.
 Leave Link 1002 at Wed Aug 10 17:16:05 2022, MaxMem=  6442450944 cpu:              31.0 elap:               2.1
 (Enter /mnt/gpfs3_amd/share/apps/amd/gaussian/g16-A.03/g16/l601.exe)
 Copying SCF densities to generalized density rwf, IOpCl= 0 IROHF=0.

 **********************************************************************

            Population analysis using the SCF density.

 **********************************************************************

 Orbital symmetries:
       Occupied  (A') (A') (A') (A') (A")
       Virtual   (A') (A') (A') (A') (A') (A") (A') (A') (A") (A')
                 (A") (A') (A') (A') (A") (A") (A') (A') (A')
 The electronic state is 1-A'.
 Alpha  occ. eigenvalues --  -19.00895  -1.15591  -0.66325  -0.52255  -0.44718
 Alpha virt. eigenvalues --    0.17006   0.24762   0.70015   0.77267   1.06048
 Alpha virt. eigenvalues --    1.07068   1.14766   1.23581   1.49318   1.54275
 Alpha virt. eigenvalues --    1.69072   1.94542   2.37579   2.41932   3.11196
 Alpha virt. eigenvalues --    3.15399   3.34169   3.64521   3.97388
          Condensed to atoms (all electrons):
               1          2          3
     1  O    7.654726   0.348440   0.348409
     2  H    0.348440   0.504214  -0.028412
     3  H    0.348409  -0.028412   0.504186
 Mulliken charges:
               1
     1  O   -0.351575
     2  H    0.175758
     3  H    0.175817
 Sum of Mulliken charges =  -0.00000
 Mulliken charges with hydrogens summed into heavy atoms:
               1
     1  O   -0.000000
 APT charges:
               1
     1  O   -0.643648
     2  H    0.321820
     3  H    0.321828
 Sum of APT charges =  -0.00000
 APT charges with hydrogens summed into heavy atoms:
               1
     1  O   -0.000000
 Electronic spatial extent (au):  <R**2>=             18.7205
 Charge=             -0.0000 electrons
 Dipole moment (field-independent basis, Debye):
    X=              0.0001    Y=             -2.2792    Z=             -0.0000  Tot=              2.2792
 Quadrupole moment (field-independent basis, Debye-Ang):
   XX=             -4.1372   YY=             -5.8692   ZZ=             -6.9967
   XY=              0.0003   XZ=              0.0000   YZ=              0.0000
 Traceless Quadrupole moment (field-independent basis, Debye-Ang):
   XX=              1.5305   YY=             -0.2015   ZZ=             -1.3290
   XY=              0.0003   XZ=              0.0000   YZ=              0.0000
 Octapole moment (field-independent basis, Debye-Ang**2):
  XXX=              0.0002  YYY=             -1.4194  ZZZ=              0.0000  XYY=             -0.0002
  XXY=             -1.3315  XXZ=             -0.0000  XZZ=              0.0001  YZZ=             -0.3719
  YYZ=              0.0000  XYZ=             -0.0000
 Hexadecapole moment (field-independent basis, Debye-Ang**3):
 XXXX=             -5.5359 YYYY=             -5.9002 ZZZZ=             -4.8122 XXXY=             -0.0000
 XXXZ=             -0.0000 YYYX=              0.0000 YYYZ=             -0.0000 ZZZX=             -0.0000
 ZZZY=             -0.0000 XXYY=             -1.5437 XXZZ=             -1.9995 YYZZ=             -1.8426
 XXYZ=              0.0000 YYXZ=             -0.0000 ZZXY=             -0.0001
 N-N= 9.170164310315D+00 E-N=-1.988665439120D+02  KE= 7.573436087227D+01
 Symmetry A'   KE= 7.112503943189D+01
 Symmetry A"   KE= 4.609321440376D+00
  Exact polarizability:   7.168   0.001   5.334   0.000  -0.000   3.198
 Approx polarizability:   5.859   0.001   4.487   0.000   0.000   2.630
 No NMR shielding tensors so no spin-rotation constants.
 Leave Link  601 at Wed Aug 10 17:16:05 2022, MaxMem=  6442450944 cpu:               1.6 elap:               0.1
 (Enter /mnt/gpfs3_amd/share/apps/amd/gaussian/g16-A.03/g16/l701.exe)
 ... and contract with generalized density number  0.
 Compute integral second derivatives.
   2 Symmetry operations used in ECPInt.
 ECPInt:  NShTT=      78 NPrTT=     272 LenC2=      79 LenP2D=     271.
 LDataN:  DoStor=T MaxTD1= 6 Len=  172
 D2PCM: PCM CHGder 2nd derivatives, FixD1E=F FixD2E=F DoIter=F DoCFld=F I1PDM=0
 GePol: Maximum number of non-zero 2nd derivatives   =     266
 Leave Link  701 at Wed Aug 10 17:16:08 2022, MaxMem=  6442450944 cpu:              49.1 elap:               3.4
 (Enter /mnt/gpfs3_amd/share/apps/amd/gaussian/g16-A.03/g16/l702.exe)
 L702 exits ... SP integral derivatives will be done elsewhere.
 Leave Link  702 at Wed Aug 10 17:16:08 2022, MaxMem=  6442450944 cpu:               0.2 elap:               0.0
 (Enter /mnt/gpfs3_amd/share/apps/amd/gaussian/g16-A.03/g16/l703.exe)
 Integral derivatives from FoFJK, PRISM(SPDF).
 Compute integral second derivatives, UseDBF=F ICtDFT=           0.
 Calling FoFJK, ICntrl=    100127 FMM=F ISym2X=1 I1Cent= 0 IOpClX= 0 NMat=1 NMatS=1 NMatT=0.
 FoFJK:  IHMeth= 1 ICntrl=  100127 DoSepK=T KAlg= 0 I1Cent=           0 FoldK=F
 IRaf=         1 NMat=       1 IRICut=       1 DoRegI=T DoRafI=F ISym2E= 1 IDoP0=0 IntGTp=1.
 FoFCou: FMM=F IPFlag=           0 FMFlag=      100000 FMFlg1=         800
         NFxFlg=           0 DoJE=F BraDBF=F KetDBF=F FulRan=T
         wScrn=  0.000000 ICntrl=    100527 IOpCl=  0 I1Cent=           0 NGrid=           0
         NMat0=    1 NMatS0=      1 NMatT0=    0 NMatD0=    1 NMtDS0=    0 NMtDT0=    0
 Petite list used in FoFCou.
 Leave Link  703 at Wed Aug 10 17:16:09 2022, MaxMem=  6442450944 cpu:              12.4 elap:               0.8
 (Enter /mnt/gpfs3_amd/share/apps/amd/gaussian/g16-A.03/g16/l716.exe)
 Dipole        = 2.35760731D-05-8.96720559D-01-4.64683885D-33
 Polarizability= 7.16785906D+00 9.01882159D-04 5.33426220D+00
                 1.53375396D-16-3.41373276D-13 3.19835615D+00
 Full mass-weighted force constant matrix:
 Low frequencies --- -145.5351  -46.6454   -0.0005    0.0008    0.0015   83.4172
 Low frequencies --- 1634.1157 3949.0008 4032.7502
 Diagonal vibrational polarizability:
        0.1776169       0.9984220       0.0000000
 Harmonic frequencies (cm**-1), IR intensities (KM/Mole), Raman scattering
 activities (A**4/AMU), depolarization ratios for plane and unpolarized
 incident light, reduced masses (AMU), force constants (mDyne/A),
 and normal coordinates:
                      1                      2                      3
                     A'                     A'                     A'
 Frequencies --   1634.1156              3949.0008              4032.7479
 Red. masses --      1.0808                 1.0469                 1.0810
 Frc consts  --      1.7005                 9.6191                10.3578
 IR Inten    --     92.2769                39.6842               107.3310
  Atom  AN      X      Y      Z        X      Y      Z        X      Y      Z
     1   8    -0.00  -0.07  -0.00    -0.00  -0.05  -0.00    -0.07   0.00  -0.00
     2   1     0.44   0.55   0.00    -0.57   0.40  -0.00     0.56  -0.44   0.00
     3   1    -0.44   0.55  -0.00     0.58   0.41   0.00     0.55   0.43   0.00

 -------------------
 - Thermochemistry -
 -------------------
 Temperature   298.150 Kelvin.  Pressure   1.00000 Atm.
 Atom     1 has atomic number  8 and mass  15.99491
 Atom     2 has atomic number  1 and mass   1.00783
 Atom     3 has atomic number  1 and mass   1.00783
 Molecular mass:    18.01056 amu.
 Principal axes and moments of inertia in atomic units:
                           1         2         3
     Eigenvalues --     2.25230   4.09775   6.35006
           X            1.00000  -0.00029   0.00000
           Y            0.00029   1.00000   0.00000
           Z            0.00000  -0.00000   1.00000
 This molecule is an asymmetric top.
 Rotational symmetry number  1.
 Rotational temperatures (Kelvin)     38.45570    21.13693    13.63986
 Rotational constants (GHZ):         801.28671   440.42203   284.20862
 Zero-point vibrational energy      57515.6 (Joules/Mol)
                                   13.74657 (Kcal/Mol)
 Vibrational temperatures:   2351.13  5681.73  5802.22
          (Kelvin)
 
 Zero-point correction=                           0.021907 (Hartree/Particle)
 Thermal correction to Energy=                    0.024742
 Thermal correction to Enthalpy=                  0.025686
 Thermal correction to Gibbs Free Energy=         0.003610
 Sum of electronic and zero-point Energies=            -76.312336
 Sum of electronic and thermal Energies=               -76.309500
 Sum of electronic and thermal Enthalpies=             -76.308556
 Sum of electronic and thermal Free Energies=          -76.330632
 
                     E (Thermal)             CV                S
                      KCal/Mol        Cal/Mol-Kelvin    Cal/Mol-Kelvin
 Total                   15.526              6.008             46.463
 Electronic               0.000              0.000              0.000
 Translational            0.889              2.981             34.608
 Rotational               0.889              2.981             11.848
 Vibrational             13.748              0.047              0.007
                       Q            Log10(Q)             Ln(Q)
 Total Bot       0.218486D-01         -1.660576         -3.823617
 Total V=0       0.260453D+09          8.415729         19.377932
 Vib (Bot)       0.839186D-10        -10.076142        -23.201174
 Vib (V=0)       0.100038D+01          0.000163          0.000376
 Electronic      0.100000D+01          0.000000          0.000000
 Translational   0.300431D+07          6.477745         14.915559
 Rotational      0.866604D+02          1.937821          4.461997
 
                                                                H2 O1
                                                             IR Spectrum
 
     4  3                                                                        1                                                   
     0  9                                                                        6                                                   
     3  4                                                                        3                                                   
     3  9                                                                        4                                                   
 
     X  X                                                                        X                                                   
     X  X                                                                        X                                                   
     X  X                                                                        X                                                   
     X  X                                                                        X                                                   
     X  X                                                                        X                                                   
     X  X                                                                        X                                                   
     X  X                                                                        X                                                   
     X                                                                           X                                                   
     X                                                                           X                                                   
     X                                                                           X                                                   
     X                                                                           X                                                   
     X                                                                           X                                                   
     X                                                                           X                                                   
     X                                                                           X                                                   
     X                                                                           X                                                   
     X                                                                           X                                                   
     X                                                                           X                                                   
     X                                                                                                                               
     X                                                                                                                               
     X                                                                                                                               
 
 ***** Axes restored to original set *****
 -------------------------------------------------------------------
 Center     Atomic                   Forces (Hartrees/Bohr)
 Number     Number              X              Y              Z
 -------------------------------------------------------------------
      1        8           0.000106167   -0.000202946    0.000000000
      2        1          -0.000010938    0.000060467    0.000000000
      3        1          -0.000095229    0.000142479   -0.000000000
 -------------------------------------------------------------------
 Cartesian Forces:  Max     0.000202946 RMS     0.000097527
 Force constants in Cartesian coordinates: 
                1             2             3             4             5 
      1  0.711551D+00
      2  0.116614D-02  0.492618D+00
      3  0.000000D+00  0.000000D+00  0.463313D-03
      4 -0.353847D+00 -0.223003D+00  0.000000D+00  0.385595D+00
      5 -0.280405D+00 -0.248444D+00  0.000000D+00  0.251887D+00  0.234714D+00
      6  0.000000D+00  0.000000D+00 -0.194412D-03  0.000000D+00  0.000000D+00
      7 -0.357704D+00  0.221837D+00  0.000000D+00 -0.317480D-01  0.285180D-01
      8  0.279239D+00 -0.244174D+00  0.000000D+00 -0.288847D-01  0.137300D-01
      9  0.000000D+00  0.000000D+00 -0.268901D-03  0.000000D+00  0.000000D+00
                6             7             8             9 
      6  0.393631D-04
      7  0.000000D+00  0.389452D+00
      8  0.000000D+00 -0.250355D+00  0.230444D+00
      9  0.155049D-03  0.000000D+00  0.000000D+00  0.113852D-03
 FormGI is forming the generalized inverse of G from B-inverse, IUseBI=4.
 Force constants in internal coordinates: 
                1             2             3 
      1  0.572799D+00
      2 -0.323500D-02  0.572324D+00
      3  0.287198D-01  0.287259D-01  0.158310D+00
 Leave Link  716 at Wed Aug 10 17:16:09 2022, MaxMem=  6442450944 cpu:               0.3 elap:               0.0
 (Enter /mnt/gpfs3_amd/share/apps/amd/gaussian/g16-A.03/g16/l103.exe)

 GradGradGradGradGradGradGradGradGradGradGradGradGradGradGradGradGradGrad
 Berny optimization.
 Red2BG is reusing G-inverse.
 Internal  Forces:  Max     0.000162805 RMS     0.000110947
 Search for a local minimum.
 Step number   1 out of a maximum of    2
 All quantities printed in internal units (Hartrees-Bohrs-Radians)
 Second derivative matrix not updated -- analytic derivatives used.
 The second derivative matrix:
                          R1        R2        A1
           R1           0.57280
           R2          -0.00323   0.57232
           A1           0.02872   0.02873   0.15831
 ITU=  0
     Eigenvalues ---    0.15433   0.57328   0.57582
 Angle between quadratic step and forces=  33.95 degrees.
 Linear search not attempted -- first point.
 Iteration  1 RMS(Cart)=  0.00035218 RMS(Int)=  0.00000010
 Iteration  2 RMS(Cart)=  0.00000010 RMS(Int)=  0.00000000
 ITry= 1 IFail=0 DXMaxC= 4.13D-04 DCOld= 1.00D+10 DXMaxT= 3.00D-01 DXLimC= 3.00D+00 Rises=F
 ClnCor:  largest displacement from symmetrization is 4.48D-16 for atom     2.
 Variable       Old X    -DE/DX   Delta X   Delta X   Delta X     New X
                                 (Linear)    (Quad)   (Total)
    R1        1.81405  -0.00003   0.00000  -0.00009  -0.00009   1.81396
    R2        1.81428  -0.00016   0.00000  -0.00032  -0.00032   1.81396
    A1        1.80843   0.00010   0.00000   0.00069   0.00069   1.80912
         Item               Value     Threshold  Converged?
 Maximum Force            0.000163     0.000450     YES
 RMS     Force            0.000111     0.000300     YES
 Maximum Displacement     0.000413     0.001800     YES
 RMS     Displacement     0.000352     0.001200     YES
 Predicted change in Energy=-6.117103D-08
 Optimization completed.
    -- Stationary point found.
                           ----------------------------
                           !   Optimized Parameters   !
                           ! (Angstroms and Degrees)  !
 --------------------------                            --------------------------
 ! Name  Definition              Value          Derivative Info.                !
 --------------------------------------------------------------------------------
 ! R1    R(1,2)                  0.96           -DE/DX =    0.0                 !
 ! R2    R(1,3)                  0.9601         -DE/DX =   -0.0002              !
 ! A1    A(2,1,3)              103.6152         -DE/DX =    0.0001              !
 --------------------------------------------------------------------------------
 GradGradGradGradGradGradGradGradGradGradGradGradGradGradGradGradGradGrad

 Leave Link  103 at Wed Aug 10 17:16:09 2022, MaxMem=  6442450944 cpu:               0.1 elap:               0.0
 (Enter /mnt/gpfs3_amd/share/apps/amd/gaussian/g16-A.03/g16/l9999.exe)

 ----------------------------------------------------------------------

 Electric dipole moment (input orientation):
 (Debye = 10**-18 statcoulomb cm , SI units = C m)
                  (au)            (Debye)         (10**-30 SI)
   Tot        0.896721D+00      0.227924D+01      0.760271D+01
   x          0.373277D-02      0.948775D-02      0.316477D-01
   y         -0.896713D+00     -0.227922D+01     -0.760265D+01
   z          0.000000D+00      0.000000D+00      0.000000D+00

 Dipole polarizability, Alpha (input orientation).
 (esu units = cm**3 , SI units = C**2 m**2 J**-1)
 Alpha(0;0):
               (au)            (10**-24 esu)      (10**-40 SI)
   iso        0.523349D+01      0.775524D+00      0.862886D+00
   aniso      0.344101D+01      0.509905D+00      0.567346D+00
   xx         0.716783D+01      0.106216D+01      0.118182D+01
   yx         0.677898D-02      0.100454D-02      0.111770D-02
   yy         0.533429D+01      0.790460D+00      0.879505D+00
   zx         0.000000D+00      0.000000D+00      0.000000D+00
   zy         0.000000D+00      0.000000D+00      0.000000D+00
   zz         0.319836D+01      0.473947D+00      0.527338D+00

 ----------------------------------------------------------------------

 Dipole orientation:
     8         -0.00001966         -0.00000008         -0.74780267
     1         -1.42580001         -0.00593521          0.37375159
     1          1.42581967          0.00593529          0.37405297

 Electric dipole moment (dipole orientation):
 (Debye = 10**-18 statcoulomb cm , SI units = C m)
                  (au)            (Debye)         (10**-30 SI)
   Tot        0.896721D+00      0.227924D+01      0.760271D+01
   x          0.000000D+00      0.000000D+00      0.000000D+00
   y          0.000000D+00      0.000000D+00      0.000000D+00
   z          0.896721D+00      0.227924D+01      0.760271D+01

 Dipole polarizability, Alpha (dipole orientation).
 (esu units = cm**3 , SI units = C**2 m**2 J**-1)
 Alpha(0;0):
               (au)            (10**-24 esu)      (10**-40 SI)
   iso        0.523349D+01      0.775524D+00      0.862886D+00
   aniso      0.344101D+01      0.509905D+00      0.567346D+00
   xx         0.716779D+01      0.106216D+01      0.118181D+01
   yx         0.165237D-01      0.244855D-02      0.272438D-02
   yy         0.319842D+01      0.473958D+00      0.527349D+00
   zx         0.853667D-03      0.126500D-03      0.140751D-03
   zy         0.000000D+00      0.000000D+00      0.000000D+00
   zz         0.533426D+01      0.790456D+00      0.879501D+00

 ----------------------------------------------------------------------

 Test job not archived.
 1\1\GINC-ROME092\Freq\RLC-wHPBE\def2SVP\H2O1\RDU230\10-Aug-2022\0\\#P 
 LC-wHPBE/Def2SVP Geom=AllCheck Guess=TCheck SCRF=Check freq iop(3/107=
 0499400000, 3/108=0499400000)\\H2 O1\\0,1\O,-0.0016576651,0.3957166596
 ,0.\H,-0.7536775749,-0.2009198886,0.\H,0.7553352399,-0.194797771,0.\\V
 ersion=AM64L-G16RevA.03\State=1-A'\HF=-76.3342424\RMSD=3.901e-10\RMSF=
 9.753e-05\ZeroPoint=0.0219066\Thermal=0.0247419\Dipole=0.0037328,-0.89
 67128,0.\DipoleDeriv=-0.64014,-0.0005921,0.,-0.0006578,-0.4913807,0.,0
 .,0.,-0.7994245,0.3203811,-0.0150946,0.,-0.0622834,0.245358,0.,0.,0.,0
 .3997207,0.3197589,0.0156867,0.,0.0629412,0.2460227,0.,0.,0.,0.3997037
 \Polar=7.1678344,0.006779,5.3342868,0.,0.,3.1983562\Quadrupole=1.13785
 73,-0.1497908,-0.9880665,0.0051496,0.,0.\PG=CS [SG(H2O1)]\NImag=0\\0.7
 1155073,0.00116614,0.49261798,0.,0.,0.00046331,-0.35384707,-0.22300278
 ,0.,0.38559502,-0.28040545,-0.24844365,0.,0.25188744,0.23471370,0.,0.,
 -0.00019441,0.,0.,0.00003936,-0.35770366,0.22183664,0.,-0.03174795,0.0
 2851801,0.,0.38945162,0.27923931,-0.24417433,0.,-0.02888466,0.01372995
 ,0.,-0.25035465,0.23044437,0.,0.,-0.00026890,0.,0.,0.00015505,0.,0.,0.
 00011385\\-0.00010617,0.00020295,0.,0.00001094,-0.00006047,0.,0.000095
 23,-0.00014248,0.\\\@


 The impersonal hand of government can
 never replace the helping hand of a neighbor.
                        -- Hubert H. Humphrey
 Job cpu time:       0 days  0 hours  3 minutes 22.5 seconds.
 Elapsed time:       0 days  0 hours  0 minutes 14.0 seconds.
 File lengths (MBytes):  RWF=    136 Int=      0 D2E=      0 Chk=     16 Scr=     16
 Normal termination of Gaussian 16 at Wed Aug 10 17:16:09 2022.
